------------------------------------------------------------
          Invoking FHI-aims ...

          When using FHI-aims, please cite the following reference:

            Volker Blum, Ralf Gehrke, Felix Hanke, Paula Havu,
            Ville Havu, Xinguo Ren, Karsten Reuter, and Matthias Scheffler,
            'Ab Initio Molecular Simulations with Numeric Atom-Centered Orbitals',
            Computer Physics Communications 180, 2175-2196 (2009)

          In addition, many other developments in FHI-aims are likely important for
          your particular application. If so, please cite them. A partial list of references
          is written at the end of this file. Thank you for giving credit to the authors
          of these developments.

          For general information about FHI-aims please find us at

            https://fhi-aims.org

          Online tutorials can be found at

            https://fhi-aims-club.gitlab.io/tutorials/tutorials-overview/

          For any questions about FHI-aims, please visit our slack channel at

            https://fhi-aims.slack.com

          and our main development and support site at

            https://aims-git.rz-berlin.mpg.de .

          The latter site, in particular, has a wiki to collect information, as well
          as an issue tracker to log discussions, suggest improvements, and report issues
          or bugs. https://aims-git.rz-berlin.mpg.de is also the main development site
          of the project and all new and updated code versions can be obtained there.
          Please send an email to aims-coordinators@fhi-berlin.mpg.de and we will add
          you to these sites. They are for you and everyone is welcome there.

------------------------------------------------------------



  Date     :  20240930, Time     :  151130.301
  Time zero on CPU 1             :   0.106374000000000E+00  s.
  Internal wall clock time zero  :           496941090.301  s.

  FHI-aims created a unique identifier for this run for later identification
  aims_uuid : 7F7374B9-46DB-45B2-A546-88CDEAB6BE38

  Build configuration of the current instance of FHI-aims
  -------------------------------------------------------
  FHI-aims version      : 240507
  Commit number         : 189b292af
  CMake host system     : Linux-6.7.12-amd64
  CMake version         : 3.29.6
  Fortran compiler      : /opt/software/openmpi-4.1.6_intel/bin/mpif90 (Intel) version 2021.8.0.20221119
  Fortran compiler flags: -O3 -march=core-avx2 -fma -ftz -align array64byte -fomit-frame-pointer
  C compiler            : /usr/bin/cc (GNU) version 13.2.0
  C compiler flags      : -Ofast
  C++ compiler          : /usr/bin/g++ (GNU) version 13.2.0
  C++ compiler flags    : -Ofast
  HIP compiler          :
  HIP compiler flags    :
  HIP GPU arch          :
  Using MPI
  Using ScaLAPACK
  Using LibXC
  Using i-PI
  Using RLSY
  Linking against: /opt/software/intel/oneapi/mkl/2023.0.0/lib/intel64/libmkl_intel_lp64.so
                   /opt/software/intel/oneapi/mkl/2023.0.0/lib/intel64/libmkl_sequential.so
                   /opt/software/intel/oneapi/mkl/2023.0.0/lib/intel64/libmkl_core.so
                   /opt/software/intel/oneapi/mkl/2023.0.0/lib/intel64/libmkl_scalapack_lp64.so
                   /opt/software/intel/oneapi/mkl/2023.0.0/lib/intel64/libmkl_blacs_openmpi_lp64.so

  Using       56 parallel tasks.
  Task        0 on host h09 reporting.
  Task        1 on host h09 reporting.
  Task        2 on host h09 reporting.
  Task        3 on host h09 reporting.
  Task        4 on host h09 reporting.
  Task        5 on host h09 reporting.
  Task        6 on host h09 reporting.
  Task        7 on host h09 reporting.
  Task        8 on host h09 reporting.
  Task        9 on host h09 reporting.
  Task       10 on host h09 reporting.
  Task       11 on host h09 reporting.
  Task       12 on host h09 reporting.
  Task       13 on host h09 reporting.
  Task       14 on host h09 reporting.
  Task       15 on host h09 reporting.
  Task       16 on host h09 reporting.
  Task       17 on host h09 reporting.
  Task       18 on host h09 reporting.
  Task       19 on host h09 reporting.
  Task       20 on host h09 reporting.
  Task       21 on host h09 reporting.
  Task       22 on host h09 reporting.
  Task       23 on host h09 reporting.
  Task       24 on host h09 reporting.
  Task       25 on host h09 reporting.
  Task       26 on host h09 reporting.
  Task       27 on host h09 reporting.
  Task       28 on host h09 reporting.
  Task       29 on host h09 reporting.
  Task       30 on host h09 reporting.
  Task       31 on host h09 reporting.
  Task       32 on host h09 reporting.
  Task       33 on host h09 reporting.
  Task       34 on host h09 reporting.
  Task       35 on host h09 reporting.
  Task       36 on host h09 reporting.
  Task       37 on host h09 reporting.
  Task       38 on host h09 reporting.
  Task       39 on host h09 reporting.
  Task       40 on host h09 reporting.
  Task       41 on host h09 reporting.
  Task       42 on host h09 reporting.
  Task       43 on host h09 reporting.
  Task       44 on host h09 reporting.
  Task       45 on host h09 reporting.
  Task       46 on host h09 reporting.
  Task       47 on host h09 reporting.
  Task       48 on host h09 reporting.
  Task       49 on host h09 reporting.
  Task       50 on host h09 reporting.
  Task       51 on host h09 reporting.
  Task       52 on host h09 reporting.
  Task       53 on host h09 reporting.
  Task       54 on host h09 reporting.
  Task       55 on host h09 reporting.

  Memory overcommitment is allowed on your operating system.

  Obtaining array dimensions for all initial allocations:
  
  -----------------------------------------------------------------------
  Parsing control.in (first pass over file, find array dimensions only).
  The contents of control.in will be repeated verbatim below
  unless switched off by setting 'verbatim_writeout .false.' .
  in the first line of control.in .
  -----------------------------------------------------------------------
  
  # Physical  settings
  xc                 pbe
  spin               none
  relativistic       atomic_zora scalar
  ## SCF  settings
  sc_accuracy_rho     1E-6
  sc_iter_limit        100
  k_grid   8 8 8
  output polarization 1 15 4 4
  output polarization 2 4 15 4
  output polarization 3 4 4 15
  
  
  ################################################################################
  #
  #  FHI-aims code project
  #  VB, Fritz-Haber Institut, 2009
  #
  #  Suggested "light" defaults for Mg atom (to be pasted into control.in file)
  #  Be sure to double-check any results obtained with these settings for post-processing,
  #  e.g., with the "tight" defaults and larger basis sets.
  #
  ################################################################################
  species        Mg
  #     global species definitions
  nucleus             12
  mass                24.3050
  #
  l_hartree           4
  #
  cut_pot             4.0          1.5  1.0
  basis_dep_cutoff    1e-4
  #
  radial_base         40 5.5
  radial_multiplier   1
  angular_grids       specified
  division   0.7029   50
  division   0.9689  110
  division   1.1879  194
  division   1.3129  302
  #      division   1.4867  434
  #      division   1.6018  590
  #      division   1.8611  770
  #      division   1.9576  974
  #      division   2.2261 1202
  #      outer_grid   974
  outer_grid   302
  ################################################################################
  #
  #  Definition of "minimal" basis
  #
  ################################################################################
  #     valence basis states
  valence      3  s   2.
  valence      2  p   6.
  #     ion occupancy
  ion_occ      2  s   2.
  ion_occ      2  p   6.
  ################################################################################
  #
  #  Suggested additional basis functions. For production calculations,
  #  uncomment them one after another (the most important basis functions are
  #  listed first).
  #
  #  Constructed for dimers: 2.125 A, 2.375 A, 2.875 A, 3.375 A, 4.5 A
  #
  ################################################################################
  #  "First tier" - improvements: -230.76 meV to -21.94 meV
  hydro 2 p 1.5
  ionic 3 d auto
  hydro 3 s 2.4
  #  "Second tier" - improvements: -5.43 meV to -1.64 meV
  #     hydro 4 f 4.3
  #     hydro 2 p 3.4
  #     hydro 4 s 11.2
  #     hydro 3 d 6.2
  #  "Third tier" - improvements: -0.92 meV to -0.22 meV
  #     hydro 2 s 0.6
  #     hydro 3 p 4.8
  #     hydro 4 f 7.4
  #     hydro 5 g 6.6
  #     hydro 2 p 1.6
  #     hydro 3 d 1.8
  #  "Fourth tier" - improvements: -0.09 meV to -0.05 meV
  #     hydro 4 p 0.45
  #     hydro 5 g 10.4
  #     hydro 2 s 12.4
  #     hydro 4 d 1.7
  ################################################################################
  #
  #  FHI-aims code project
  #  VB, Fritz-Haber Institut, 2009
  #
  #  Suggested "light" defaults for O atom (to be pasted into control.in file)
  #  Be sure to double-check any results obtained with these settings for post-processing,
  #  e.g., with the "tight" defaults and larger basis sets.
  #
  ################################################################################
  species        O
  #     global species definitions
  nucleus             8
  mass                15.9994
  #
  l_hartree           4
  #
  cut_pot             3.5  1.5  1.0
  basis_dep_cutoff    1e-4
  #
  radial_base         36 5.0
  radial_multiplier   1
  angular_grids specified
  division   0.2659   50
  division   0.4451  110
  division   0.6052  194
  division   0.7543  302
  #      division   0.8014  434
  #      division   0.8507  590
  #      division   0.8762  770
  #      division   0.9023  974
  #      division   1.2339 1202
  #      outer_grid 974
  outer_grid 302
  ################################################################################
  #
  #  Definition of "minimal" basis
  #
  ################################################################################
  #     valence basis states
  valence      2  s   2.
  valence      2  p   4.
  #     ion occupancy
  ion_occ      2  s   1.
  ion_occ      2  p   3.
  ################################################################################
  #
  #  Suggested additional basis functions. For production calculations,
  #  uncomment them one after another (the most important basis functions are
  #  listed first).
  #
  #  Constructed for dimers: 1.0 A, 1.208 A, 1.5 A, 2.0 A, 3.0 A
  #
  ################################################################################
  #  "First tier" - improvements: -699.05 meV to -159.38 meV
  hydro 2 p 1.8
  hydro 3 d 7.6
  hydro 3 s 6.4
  #  "Second tier" - improvements: -49.91 meV to -5.39 meV
  #     hydro 4 f 11.6
  #     hydro 3 p 6.2
  #     hydro 3 d 5.6
  #     hydro 5 g 17.6
  #     hydro 1 s 0.75
  #  "Third tier" - improvements: -2.83 meV to -0.50 meV
  #     ionic 2 p auto
  #     hydro 4 f 10.8
  #     hydro 4 d 4.7
  #     hydro 2 s 6.8
  #  "Fourth tier" - improvements: -0.40 meV to -0.12 meV
  #     hydro 3 p 5
  #     hydro 3 s 3.3
  #     hydro 5 g 15.6
  #     hydro 4 f 17.6
  #     hydro 4 d 14
  # Further basis functions - -0.08 meV and below
  #     hydro 3 s 2.1
  #     hydro 4 d 11.6
  #     hydro 3 p 16
  #     hydro 2 s 17.2
  
  -----------------------------------------------------------------------
  Completed first pass over input file control.in .
  -----------------------------------------------------------------------
  
  
  -----------------------------------------------------------------------
  Parsing geometry.in (first pass over file, find array dimensions only).
  The contents of geometry.in will be repeated verbatim below
  unless switched off by setting 'verbatim_writeout .false.' .
  in the first line of geometry.in .
  -----------------------------------------------------------------------
  
  #===============================================================================
  # Created using the Atomic Simulation Environment (ASE)
  
  # Mon Sep 30 15:11:05 2024
  
  #=======================================================
  lattice_vector 4.2617412100000003 0.0000000000000000 0.0000000000000000
  lattice_vector 0.0000000000000000 4.2617398700000004 -0.0000000000000000
  lattice_vector 0.0000000000000000 -0.0000000000000000 4.2617398700000004
  atom 0.0000000000000000 0.0000000000000000 -0.0000000426173987 Mg
  atom 0.0000000000000000 2.1308698923826017 2.1308699776173992 Mg
  atom 2.1308706050000001 0.0000000426173987 2.1308699776173992 Mg
  atom 2.1308706050000001 2.1308698923826017 -0.0000000426173987 Mg
  atom 2.1266088637900000 2.1308699776173992 2.1308698923826017 O
  atom 2.1308706050000001 -0.0000000426173987 0.0000000426173987 O
  atom 0.0000000000000000 2.1308699350000002 0.0000000426173987 O
  atom 0.0000000000000000 -0.0000000426173987 2.1308698923826017 O
  
  -----------------------------------------------------------------------
  Completed first pass over input file geometry.in .
  -----------------------------------------------------------------------
  

  Basic array size parameters:
  | Number of species                 :        2
  | Number of atoms                   :        8
  | Number of lattice vectors         :        3
  | Max. basis fn. angular momentum   :        2
  | Max. atomic/ionic basis occupied n:        3
  | Max. number of basis fn. types    :        3
  | Max. radial fns per species/type  :        4
  | Max. logarithmic grid size        :     1334
  | Max. radial integration grid size :       40
  | Max. angular integration grid size:      302
  | Max. angular grid division number :        8
  | Radial grid for Hartree potential :     1334
  | Number of spin channels           :        1

------------------------------------------------------------
          Reading file control.in.
------------------------------------------------------------
  XC: Using PBE gradient-corrected functionals.
  Spin treatment: No spin polarisation.
  Scalar relativistic treatment of kinetic energy: on-site free-atom approximation to ZORA.
  Convergence accuracy of self-consistent charge density:  0.1000E-05
  Maximum number of s.-c. iterations  :   100
  Found k-point grid:         8         8         8

  Polarization directive number:    1
  | Calculating polarization along reciprocal lattice vector 1 using   15 k-points parallel to this direction.
  | Full Brillouin zone sampling is thus performed on a    15 x     4 x     4 grid

  Polarization directive number:    2
  | Calculating polarization along reciprocal lattice vector 2 using   15 k-points parallel to this direction.
  | Full Brillouin zone sampling is thus performed on a     4 x    15 x     4 grid

  Polarization directive number:    3
  | Calculating polarization along reciprocal lattice vector 3 using   15 k-points parallel to this direction.
  | Full Brillouin zone sampling is thus performed on a     4 x     4 x    15 grid
 
  Reading configuration options for species Mg                  .
  | Found nuclear charge :  12.0000
  | Found atomic mass :    24.3050000000000      amu
  | Found l_max for Hartree potential  :   4
  | Found cutoff potl. onset [A], width [A], scale factor :    4.00000    1.50000    1.00000
  | Threshold for basis-dependent cutoff potential is   0.100000E-03
  | Found data for basic radial integration grid :    40 points, outermost radius =    5.500 A
  | Found multiplier for basic radial grid :   1
  | Found angular grid specification: user-specified.
  | Specified grid contains     5 separate shells.
  | Check grid settings after all constraints further below.
  | Found free-atom valence shell :  3 s   2.000
  | Found free-atom valence shell :  2 p   6.000
  | Found free-ion valence shell :  2 s   2.000
  | Found free-ion valence shell :  2 p   6.000
  | Found hydrogenic basis function :  2 p   1.500
  | Found ionic basis function :  3 d , default cutoff radius.
  | Found hydrogenic basis function :  3 s   2.400
 | Encountered keyword species, ending the description of species Mg                  .
  Species Mg                  : Missing cutoff potential type.
  Defaulting to exp(1/x)/(1-x)^2 type cutoff potential.
  Species Mg: No 'logarithmic' tag. Using default grid for free atom:
  | Default logarithmic grid data [bohr] : 0.1000E-03 0.1000E+03 0.1012E+01
  | Will include ionic basis functions of  2.0-fold positive Mg                   ion.
  Species Mg: On-site basis accuracy parameter (for Gram-Schmidt orthonormalisation) not specified.
  Using default value basis_acc =  0.1000000E-03.
  Species Mg                  : Using default innermost maximum threshold i_radial=  2 for radial functions.
  Species Mg                  : Default cutoff onset for free atom density etc. : 0.40000000E+01 AA.
  Species Mg                  : Basic radial grid will be enhanced according to radial_multiplier =   1, to contain    40 grid points.
 
  Reading configuration options for species O                   .
  | Found nuclear charge :   8.0000
  | Found atomic mass :    15.9994000000000      amu
  | Found l_max for Hartree potential  :   4
  | Found cutoff potl. onset [A], width [A], scale factor :    3.50000    1.50000    1.00000
  | Threshold for basis-dependent cutoff potential is   0.100000E-03
  | Found data for basic radial integration grid :    36 points, outermost radius =    5.000 A
  | Found multiplier for basic radial grid :   1
  | Found angular grid specification: user-specified.
  | Specified grid contains     5 separate shells.
  | Check grid settings after all constraints further below.
  | Found free-atom valence shell :  2 s   2.000
  | Found free-atom valence shell :  2 p   4.000
  | Found free-ion valence shell :  2 s   1.000
  | Found free-ion valence shell :  2 p   3.000
  | Found hydrogenic basis function :  2 p   1.800
  | Found hydrogenic basis function :  3 d   7.600
  | Found hydrogenic basis function :  3 s   6.400
  Species O                   : Missing cutoff potential type.
  Defaulting to exp(1/x)/(1-x)^2 type cutoff potential.
  Species O : No 'logarithmic' tag. Using default grid for free atom:
  | Default logarithmic grid data [bohr] : 0.1000E-03 0.1000E+03 0.1012E+01
  Species O : On-site basis accuracy parameter (for Gram-Schmidt orthonormalisation) not specified.
  Using default value basis_acc =  0.1000000E-03.
  Species O                   : Using default innermost maximum threshold i_radial=  2 for radial functions.
  Species O                   : Default cutoff onset for free atom density etc. : 0.35000000E+01 AA.
  Species O                   : Basic radial grid will be enhanced according to radial_multiplier =   1, to contain    36 grid points.
 
  Finished reading input file 'control.in'.
 
------------------------------------------------------------


------------------------------------------------------------
          Reading geometry description geometry.in.
------------------------------------------------------------
  | The smallest distance between any two atoms is         2.12660886 AA.
  | The first atom of this pair is atom number                      2 .
  | The second atom of this pair is atom number                     5 .
  | Wigner-Seitz cell of the first atom image           0    -1     1 .
  | (The Wigner-Seitz cell of the second atom is 0 0 0  by definition.)

  Symmetry information by spglib:
  | Precision set to  0.1E-04
  | Number of Operations  : 8
  | Space group           : 99
  | International         : P4mm    L
  | Schoenflies           : C4v^1
  Input structure read successfully.
  The structure contains        8 atoms,  and a total of         80.000 electrons.

  Input geometry:
  | Unit cell:
  |        4.26174121        0.00000000        0.00000000
  |        0.00000000        4.26173987        0.00000000
  |        0.00000000        0.00000000        4.26173987
  | Atomic structure:
  |       Atom                x [A]            y [A]            z [A]
  |    1: Species Mg            0.00000000        0.00000000       -0.00000004
  |    2: Species Mg            0.00000000        2.13086989        2.13086998
  |    3: Species Mg            2.13087061        0.00000004        2.13086998
  |    4: Species Mg            2.13087061        2.13086989       -0.00000004
  |    5: Species O             2.12660886        2.13086998        2.13086989
  |    6: Species O             2.13087061       -0.00000004        0.00000004
  |    7: Species O             0.00000000        2.13086994        0.00000004
  |    8: Species O             0.00000000       -0.00000004        2.13086989

  Lattice parameters for 3D lattice (in Angstroms) :     4.261741    4.261740    4.261740
  Angle(s) between unit vectors (in degrees)       :    90.000000   90.000000   90.000000


  Quantities derived from the lattice vectors (in Angstrom^-1):
  | Reciprocal lattice vector 1:  1.474324  0.000000  0.000000
  | Reciprocal lattice vector 2:  0.000000  1.474324  0.000000
  | Reciprocal lattice vector 3:  0.000000  0.000000  1.474324
  | Unit cell volume                               :   0.774036E+02  Angstrom^3

  Fractional coordinates:
                         L1                L2                L3
       atom_frac         0.00000000        0.00000000       -0.00000001  Mg
       atom_frac         0.00000000        0.49999999        0.50000001  Mg
       atom_frac         0.50000000        0.00000001        0.50000001  Mg
       atom_frac         0.50000000        0.49999999       -0.00000001  Mg
       atom_frac         0.49900000        0.50000001        0.49999999  O
       atom_frac         0.50000000       -0.00000001        0.00000001  O
       atom_frac         0.00000000        0.50000000        0.00000001  O
       atom_frac         0.00000000       -0.00000001        0.49999999  O

  Slab Identifier: This seems to be a bulk system.
 
  Finished reading input file 'geometry.in'.
 

 
  Consistency checks for stacksize environment parameter are next.
 
  | Maximum stacksize for task 0: unlimited
  | Maximum stacksize for task 1: unlimited
  | Maximum stacksize for task 2: unlimited
  | Maximum stacksize for task 3: unlimited
  | Maximum stacksize for task 4: unlimited
  | Maximum stacksize for task 5: unlimited
  | Maximum stacksize for task 6: unlimited
  | Maximum stacksize for task 7: unlimited
  | Maximum stacksize for task 8: unlimited
  | Maximum stacksize for task 9: unlimited
  | Maximum stacksize for task 10: unlimited
  | Maximum stacksize for task 11: unlimited
  | Maximum stacksize for task 12: unlimited
  | Maximum stacksize for task 13: unlimited
  | Maximum stacksize for task 14: unlimited
  | Maximum stacksize for task 15: unlimited
  | Maximum stacksize for task 16: unlimited
  | Maximum stacksize for task 17: unlimited
  | Maximum stacksize for task 18: unlimited
  | Maximum stacksize for task 19: unlimited
  | Maximum stacksize for task 20: unlimited
  | Maximum stacksize for task 21: unlimited
  | Maximum stacksize for task 22: unlimited
  | Maximum stacksize for task 23: unlimited
  | Maximum stacksize for task 24: unlimited
  | Maximum stacksize for task 25: unlimited
  | Maximum stacksize for task 26: unlimited
  | Maximum stacksize for task 27: unlimited
  | Maximum stacksize for task 28: unlimited
  | Maximum stacksize for task 29: unlimited
  | Maximum stacksize for task 30: unlimited
  | Maximum stacksize for task 31: unlimited
  | Maximum stacksize for task 32: unlimited
  | Maximum stacksize for task 33: unlimited
  | Maximum stacksize for task 34: unlimited
  | Maximum stacksize for task 35: unlimited
  | Maximum stacksize for task 36: unlimited
  | Maximum stacksize for task 37: unlimited
  | Maximum stacksize for task 38: unlimited
  | Maximum stacksize for task 39: unlimited
  | Maximum stacksize for task 40: unlimited
  | Maximum stacksize for task 41: unlimited
  | Maximum stacksize for task 42: unlimited
  | Maximum stacksize for task 43: unlimited
  | Maximum stacksize for task 44: unlimited
  | Maximum stacksize for task 45: unlimited
  | Maximum stacksize for task 46: unlimited
  | Maximum stacksize for task 47: unlimited
  | Maximum stacksize for task 48: unlimited
  | Maximum stacksize for task 49: unlimited
  | Maximum stacksize for task 50: unlimited
  | Maximum stacksize for task 51: unlimited
  | Maximum stacksize for task 52: unlimited
  | Maximum stacksize for task 53: unlimited
  | Maximum stacksize for task 54: unlimited
  | Maximum stacksize for task 55: unlimited
  | Current stacksize for task 0: unlimited
  | Current stacksize for task 1: unlimited
  | Current stacksize for task 2: unlimited
  | Current stacksize for task 3: unlimited
  | Current stacksize for task 4: unlimited
  | Current stacksize for task 5: unlimited
  | Current stacksize for task 6: unlimited
  | Current stacksize for task 7: unlimited
  | Current stacksize for task 8: unlimited
  | Current stacksize for task 9: unlimited
  | Current stacksize for task 10: unlimited
  | Current stacksize for task 11: unlimited
  | Current stacksize for task 12: unlimited
  | Current stacksize for task 13: unlimited
  | Current stacksize for task 14: unlimited
  | Current stacksize for task 15: unlimited
  | Current stacksize for task 16: unlimited
  | Current stacksize for task 17: unlimited
  | Current stacksize for task 18: unlimited
  | Current stacksize for task 19: unlimited
  | Current stacksize for task 20: unlimited
  | Current stacksize for task 21: unlimited
  | Current stacksize for task 22: unlimited
  | Current stacksize for task 23: unlimited
  | Current stacksize for task 24: unlimited
  | Current stacksize for task 25: unlimited
  | Current stacksize for task 26: unlimited
  | Current stacksize for task 27: unlimited
  | Current stacksize for task 28: unlimited
  | Current stacksize for task 29: unlimited
  | Current stacksize for task 30: unlimited
  | Current stacksize for task 31: unlimited
  | Current stacksize for task 32: unlimited
  | Current stacksize for task 33: unlimited
  | Current stacksize for task 34: unlimited
  | Current stacksize for task 35: unlimited
  | Current stacksize for task 36: unlimited
  | Current stacksize for task 37: unlimited
  | Current stacksize for task 38: unlimited
  | Current stacksize for task 39: unlimited
  | Current stacksize for task 40: unlimited
  | Current stacksize for task 41: unlimited
  | Current stacksize for task 42: unlimited
  | Current stacksize for task 43: unlimited
  | Current stacksize for task 44: unlimited
  | Current stacksize for task 45: unlimited
  | Current stacksize for task 46: unlimited
  | Current stacksize for task 47: unlimited
  | Current stacksize for task 48: unlimited
  | Current stacksize for task 49: unlimited
  | Current stacksize for task 50: unlimited
  | Current stacksize for task 51: unlimited
  | Current stacksize for task 52: unlimited
  | Current stacksize for task 53: unlimited
  | Current stacksize for task 54: unlimited
  | Current stacksize for task 55: unlimited
 
  Consistency checks for the contents of control.in are next.
 
  MPI_IN_PLACE appears to work with this MPI implementation.
  | Keeping use_mpi_in_place .true. (see manual).
  Target number of points in a grid batch is not set. Defaulting to  100
  Method for grid partitioning is not set. Defaulting to parallel hash+maxmin partitioning.
  Batch size limit is not set. Defaulting to    200
  By default, will store active basis functions for each batch.
  If in need of memory, prune_basis_once .false. can be used to disable this option.
  communication_type for Hartree potential was not specified.
  Defaulting to calc_hartree .
  Defaulting to Pulay charge density mixer.
  Pulay mixer: Number of relevant iterations not set.
  Defaulting to    8 iterations.
  Pulay mixer: Number of initial linear mixing iterations not set.
  Defaulting to    0 iterations.
  Work space size for distributed Hartree potential not set.
  Defaulting to   0.200000E+03 MB.
  Mixing parameter for charge density mixing has not been set.
  Using default: charge_mix_param =     0.0500.
  The mixing parameter will be adjusted in iteration number     2 of the first full s.c.f. cycle only.
  Algorithm-dependent basis array size parameters:
  | n_max_pulay                         :        8
  Presetting      1001 iterations before the initial mixing cycle
  is restarted anyway using the sc_init_iter criterion / keyword.
  Presetting a factor      1.000 between actual scf density residual
  and density convergence criterion sc_accuracy_rho below which sc_init_iter
  takes no effect.
  Calculation of forces was not defined in control.in. No forces will be calculated.
  Geometry relaxation not requested: no relaxation will be performed.
  No accuracy limit for integral partition fn. given. Defaulting to  0.1000E-14.
  No threshold value for u(r) in integrations given. Defaulting to  0.1000E-05.
  No occupation type (smearing scheme) given. Defaulting to Gaussian broadening, width =  0.1000E-01 eV.
  The width will be adjusted in iteration number     2 of the first full s.c.f. cycle only.
  S.C.F. convergence parameters will be adjusted in iteration number     2 of the first full s.c.f. cycle only.
  No accuracy for occupation numbers given. Defaulting to  0.1000E-12.
  No threshold value for occupation numbers given. Defaulting to  0.0000E+00.
  No accuracy for fermi level given. Defaulting to  0.1000E-19.
  Maximum # of iterations to find E_F not set. Defaulting to  200.
  Preferred method for the eigenvalue solver ('KS_method') not specified in 'control.in'.
  Defaulting to serial version, LAPACK (via ELSI), since more k-points than CPUs available.
  Will not use alltoall communication since running on < 1024 CPUs.
  Threshold for basis singularities not set.
  Default threshold for basis singularities:  0.1000E-04
  partition_type (choice of integration weights) for integrals was not specified.
  | Using a version of the partition function of Stratmann and coworkers ('stratmann_sparse').
  | At each grid point, the set of atoms used to build the partition table is smoothly restricted to
  | only those atoms whose free-atom density would be non-zero at that grid point.
  Partitioning for Hartree potential was not defined. Using partition_type for integrals.
  | Adjusted default value of keyword multip_moments_threshold to:       0.10000000E-11
  | This value may affect high angular momentum components of the Hartree potential in periodic systems.
  No q(lm)/r^(l+1) cutoff set for long-range Hartree potential.
  | Using default value of  0.100000E-09 .
  | Verify using the multipole_threshold keyword.
  Defaulting to new monopole extrapolation.
  Density update method: automatic selection selected.
  Using density matrix based charge density update.
  Using density matrix based charge density update.
  Using packed matrix style: index .
  Defaulting to use time-reversal symmetry for k-point grid.
  Charge integration errors on the 3D integration grid will be compensated
  by explicit normalization and distribution of residual charges.
  Use the "compensate_multipole_errors" flag to change this behaviour.
  Set 'collect_eigenvectors' to be '.true.' for all serial calculations. This is mandatory.
  Set 'collect_eigenvectors' to be '.true.' for KS_method lapack_fast and serial.
  Found potential conflicts with setting 'use_local_index' for this calculation. Will not set it.
 
  Consistency checks for the contents of geometry.in are next.
 

  Range separation radius for Ewald summation (hartree_convergence_parameter):      2.93604921 bohr.
  Number of empty states per atom not set in control.in - providing a guess from actual geometry.
  | Total number of empty states used during s.c.f. cycle:       24
  If you use a very high smearing, use empty_states (per atom!) in control.in to increase this value.

  Structure-dependent array size parameters: 
  | Maximum number of distinct radial functions  :       13
  | Maximum number of basis functions            :      116
  | Number of Kohn-Sham states (occupied + empty):       64
------------------------------------------------------------
  After read_input_data [GB]:   1042.42

  Performing system and environment tests:
  | Environment variable OMP_NUM_THREADS correctly set to 1.
  | Checking for ScaLAPACK...
  | Testing pdtran()...
  | All pdtran() tests passed.
  After prepare_system [GB]:   1042.26

------------------------------------------------------------
          Preparing all fixed parts of the calculation.
------------------------------------------------------------
  Determining machine precision:
    2.225073858507201E-308
  Setting up grids for atomic and cluster calculations.

  Creating wave function, potential, and density for free atoms.
  Runtime choices for atomic solver:
  | atomic solver xc        : PBE
  | compute density gradient: 1
  | compute kinetic density : F

  Species: Mg

  List of occupied orbitals and eigenvalues:
    n    l              occ      energy [Ha]    energy [eV]
    1    0           2.0000       -46.359170     -1261.4972
    2    0           2.0000        -2.927498       -79.6613
    3    0           2.0000        -0.167982        -4.5710
    2    1           6.0000        -1.706030       -46.4234


  Species: O

  List of occupied orbitals and eigenvalues:
    n    l              occ      energy [Ha]    energy [eV]
    1    0           2.0000       -18.926989      -515.0296
    2    0           2.0000        -0.880247       -23.9527
    2    1           4.0000        -0.331514        -9.0210


  Adding cutoff potential to free-atom effective potential.
  Creating fixed part of basis set: Ionic, confined, hydrogenic.
 
  Mg                   ion:

  List of free ionic orbitals and eigenvalues:
    n    l      energy [Ha]    energy [eV]
    1    0       -47.122987     -1282.2817
    2    0        -3.674099       -99.9773
    2    1        -2.451441       -66.7071


  List of ionic basis orbitals and eigenvalues:
    n    l      energy [Ha]    energy [eV]    outer radius [A]
    3    2        -0.253797        -6.9062       5.100062

 
  Mg                   hydrogenic:
 
  List of hydrogenic basis orbitals: 
    n    l      effective z      eigenvalue [eV]  inner max. [A]     outer max. [A]     outer radius [A]   
    2    1         1.500000        -7.5955           1.395712           1.395712           5.100062
    3    0         2.400000        -8.0111           0.162319           2.734035           5.100062
 
 
  O                    hydrogenic:
 
  List of hydrogenic basis orbitals: 
    n    l      effective z      eigenvalue [eV]  inner max. [A]     outer max. [A]     outer radius [A]   
    2    1         1.800000       -10.9749           1.164242           1.164242           4.578029
    3    2         7.600000       -87.3180           0.624125           0.624125           3.251020
    3    0         6.400000       -61.9207           0.061167           1.081902           4.001998
 
  Creating atomic-like basis functions for current effective potential.

  Species Mg                  :

  List of atomic basis orbitals and eigenvalues:
    n    l      energy [Ha]    energy [eV]    outer radius [A]
    1    0       -46.359170     -1261.4972       0.921046
    2    0        -2.927498       -79.6613       3.621735
    3    0        -0.167982        -4.5710       5.100062
    2    1        -1.706030       -46.4234       4.404175


  Species O                   :

  List of atomic basis orbitals and eigenvalues:
    n    l      energy [Ha]    energy [eV]    outer radius [A]
    1    0       -18.926989      -515.0296       1.415765
    2    0        -0.880247       -23.9527       4.413171
    2    1        -0.331514        -9.0210       4.522403

  Assembling full basis from fixed parts.
  | Species Mg :   atomic orbital   1 s accepted.
  | Species Mg :   atomic orbital   2 s accepted.
  | Species Mg :   atomic orbital   3 s accepted.
  | Species Mg :    hydro orbital   3 s accepted.
  | Species Mg :   atomic orbital   2 p accepted.
  | Species Mg :    hydro orbital   2 p accepted.
  | Species Mg :    ionic orbital   3 d accepted.
  | Species O :   atomic orbital   1 s accepted.
  | Species O :    hydro orbital   3 s accepted.
  | Species O :   atomic orbital   2 s accepted.
  | Species O :   atomic orbital   2 p accepted.
  | Species O :    hydro orbital   2 p accepted.
  | Species O :    hydro orbital   3 d accepted.
 
  Basis size parameters after reduction:
  | Total number of radial functions:       13
  | Total number of basis functions :      116
 
  Per-task memory consumption for arrays in subroutine allocate_ext:
  |           4.443152MB.
  Testing on-site integration grid accuracy.
  |  Species  Function  <phi|h_atom|phi> (log., in eV)  <phi|h_atom|phi> (rad., in eV)
           1        1              -1261.4972086064              -1261.4966102663
           1        2                -79.6612686792                -79.6612661850
           1        3                 -4.5766449847                 -4.5764463354
           1        4                  4.2856803862                  4.2813226631
           1        5                -46.4234362291                -46.4234361907
           1        6                 -0.5282558506                 -0.5281575826
           1        7                  4.0144889854                  4.0133736295
           2        8               -515.0295626295               -515.0294562738
           2        9                 15.1698434419                 15.1699322204
           2       10                -21.6038822678                -21.6039118105
           2       11                 -9.0211123393                 -9.0212703513
           2       12                  8.3047696391                  8.2854840999
           2       13                 45.8428042125                 45.8427461222

  Preparing densities etc. for the partition functions (integrals / Hartree potential).

  Preparations completed.
  max(cpu_time)          :      0.171 s.
  Wall clock time (cpu1) :      0.169 s.
------------------------------------------------------------
  After prepare_scf [GB]:   1033.04

  Initializing index lists of integration centers etc. from given atomic structure:
  Mapping all atomic coordinates to central unit cell.

  Initializing the k-points
  Using symmetry for reducing the k-points
  | k-points reduced from:      512 to      260
  | Number of k-points                             :       260
  The eigenvectors in the calculations are COMPLEX.
  | K-points in task   0:         4
  | K-points in task   1:         5
  | K-points in task   2:         5
  | K-points in task   3:         5
  | K-points in task   4:         5
  | K-points in task   5:         5
  | K-points in task   6:         5
  | K-points in task   7:         5
  | K-points in task   8:         5
  | K-points in task   9:         5
  | K-points in task  10:         5
  | K-points in task  11:         5
  | K-points in task  12:         5
  | K-points in task  13:         5
  | K-points in task  14:         5
  | K-points in task  15:         5
  | K-points in task  16:         5
  | K-points in task  17:         5
  | K-points in task  18:         5
  | K-points in task  19:         5
  | K-points in task  20:         5
  | K-points in task  21:         5
  | K-points in task  22:         5
  | K-points in task  23:         5
  | K-points in task  24:         5
  | K-points in task  25:         5
  | K-points in task  26:         5
  | K-points in task  27:         5
  | K-points in task  28:         5
  | K-points in task  29:         5
  | K-points in task  30:         5
  | K-points in task  31:         5
  | K-points in task  32:         5
  | K-points in task  33:         5
  | K-points in task  34:         5
  | K-points in task  35:         5
  | K-points in task  36:         5
  | K-points in task  37:         4
  | K-points in task  38:         4
  | K-points in task  39:         4
  | K-points in task  40:         4
  | K-points in task  41:         4
  | K-points in task  42:         4
  | K-points in task  43:         4
  | K-points in task  44:         4
  | K-points in task  45:         4
  | K-points in task  46:         4
  | K-points in task  47:         4
  | K-points in task  48:         4
  | K-points in task  49:         4
  | K-points in task  50:         4
  | K-points in task  51:         4
  | K-points in task  52:         4
  | K-points in task  53:         4
  | K-points in task  54:         4
  | K-points in task  55:         4
  | Number of basis functions in the Hamiltonian integrals :      3035
  | Number of basis functions in a single unit cell        :       116
  | Number of centers in hartree potential         :      1395
  | Number of centers in hartree multipole         :      1011
  | Number of centers in electron density summation:       772
  | Number of centers in basis integrals           :       783
  | Number of centers in integrals                 :       251
  | Number of centers in hamiltonian               :       815
  | Consuming        633 KiB for k_phase.
  | Number of super-cells (origin) [n_cells]                     :         729
  | Number of super-cells (after PM_index) [n_cells]             :         156
  | Number of super-cells in hamiltonian [n_cells_in_hamiltonian]:         156
  | Size of matrix packed + index [n_hamiltonian_matrix_size] :      272269
  After initialize_bc_dependent_lists [GB]:   1032.97

------------------------------------------------------------
          Begin self-consistency loop: Initialization.

          Date     :  20240930, Time     :  151130.567
------------------------------------------------------------
  Available memory per node after initialize_hartree_non_periodic_ewald [GB]:   1032.95
  | Estimated reciprocal-space cutoff momentum G_max:         3.22220748 bohr^-1 .
  | Reciprocal lattice points for long-range Hartree potential:     304
  Available memory per node after initialize_recip_hartree_potential [GB]:   1032.95
  Available memory per node after initialize_scalapack [GB]:   1032.95
  Available memory per node after aims_elsi_init_scf [GB]:   1032.95
  Available memory per node after initialize_fixed_grids [GB]:   1032.95
  Partitioning the integration grid into batches with parallel hashing+maxmin method.
  | Number of batches:      618
  | Maximal batch size:     106
  | Minimal batch size:      49
  | Average batch size:      77.256
  | Standard deviation of batch sizes:      12.235

  Integration load balanced across    56 MPI tasks.
  Work distribution over tasks is as follows:
  Task     0 has        821 integration points.
  Task     1 has        824 integration points.
  Task     2 has        883 integration points.
  Task     3 has        856 integration points.
  Task     4 has        819 integration points.
  Task     5 has        865 integration points.
  Task     6 has        860 integration points.
  Task     7 has        885 integration points.
  Task     8 has        886 integration points.
  Task     9 has        848 integration points.
  Task    10 has        822 integration points.
  Task    11 has        887 integration points.
  Task    12 has        847 integration points.
  Task    13 has        859 integration points.
  Task    14 has        838 integration points.
  Task    15 has        879 integration points.
  Task    16 has        847 integration points.
  Task    17 has        848 integration points.
  Task    18 has        841 integration points.
  Task    19 has        875 integration points.
  Task    20 has        834 integration points.
  Task    21 has        855 integration points.
  Task    22 has        883 integration points.
  Task    23 has        836 integration points.
  Task    24 has        842 integration points.
  Task    25 has        839 integration points.
  Task    26 has        884 integration points.
  Task    27 has        877 integration points.
  Task    28 has        811 integration points.
  Task    29 has        840 integration points.
  Task    30 has        856 integration points.
  Task    31 has        861 integration points.
  Task    32 has        843 integration points.
  Task    33 has        817 integration points.
  Task    34 has        839 integration points.
  Task    35 has        851 integration points.
  Task    36 has        839 integration points.
  Task    37 has        845 integration points.
  Task    38 has        881 integration points.
  Task    39 has        837 integration points.
  Task    40 has        827 integration points.
  Task    41 has        844 integration points.
  Task    42 has        881 integration points.
  Task    43 has        880 integration points.
  Task    44 has        851 integration points.
  Task    45 has        883 integration points.
  Task    46 has        835 integration points.
  Task    47 has        843 integration points.
  Task    48 has        845 integration points.
  Task    49 has        838 integration points.
  Task    50 has        878 integration points.
  Task    51 has        890 integration points.
  Task    52 has        848 integration points.
  Task    53 has        844 integration points.
  Task    54 has        880 integration points.
  Task    55 has        817 integration points.
  Available memory per node after partition_grid [GB]:   1032.88
  Initializing partition tables, free-atom densities, potentials, etc. across the integration grid (initialize_grid_storage).
  | initialize_grid_storage: Actual outermost partition radius vs. multipole_radius_free
  | (-- VB: in principle, multipole_radius_free should be larger, hence this output)
  | Species        1: Confinement radius =              5.500000000000000 AA, multipole_radius_free =              5.555717568450569 AA.
  | Species        1: outer_partition_radius set to              5.555717568450569 AA .
  | Species        2: Confinement radius =              4.999999999999999 AA, multipole_radius_free =              5.048384829883283 AA.
  | Species        2: outer_partition_radius set to              5.048384829883283 AA .
  | The sparse table of interatomic distances needs       2916.40 kbyte instead of      4904.71 kbyte of memory.
  | Net number of integration points:    47744
  | of which are non-zero points    :    36696
  | Numerical average free-atom electrostatic potential    :    -16.91921744 eV
  Available memory per node after initialize_grid_storage_p1 [GB]:   1031.50
  Renormalizing the initial density to the exact electron count on the 3D integration grid.
  | Initial density: Formal number of electrons (from input files) :      80.0000000000
  | Integrated number of electrons on 3D grid     :      80.0130652055
  | Charge integration error                      :       0.0130652055
  | Normalization factor for density and gradient :       0.9998367116
  Renormalizing the free-atom superposition density to the exact electron count on the 3D integration grid.
  | Formal number of electrons (from input files) :      80.0000000000
  | Integrated number of electrons on 3D grid     :      80.0130652055
  | Charge integration error                      :       0.0130652055
  | Normalization factor for density and gradient :       0.9998367116
  Obtaining max. number of non-zero basis functions in each batch (get_n_compute_maxes).
  | Maximal number of non-zero basis functions:      773 in task     0
  | Maximal number of non-zero basis functions:      794 in task     1
  | Maximal number of non-zero basis functions:      758 in task     2
  | Maximal number of non-zero basis functions:      767 in task     3
  | Maximal number of non-zero basis functions:      794 in task     4
  | Maximal number of non-zero basis functions:      760 in task     5
  | Maximal number of non-zero basis functions:      770 in task     6
  | Maximal number of non-zero basis functions:      763 in task     7
  | Maximal number of non-zero basis functions:      774 in task     8
  | Maximal number of non-zero basis functions:      762 in task     9
  | Maximal number of non-zero basis functions:      778 in task    10
  | Maximal number of non-zero basis functions:      762 in task    11
  | Maximal number of non-zero basis functions:      778 in task    12
  | Maximal number of non-zero basis functions:      773 in task    13
  | Maximal number of non-zero basis functions:      798 in task    14
  | Maximal number of non-zero basis functions:      765 in task    15
  | Maximal number of non-zero basis functions:      764 in task    16
  | Maximal number of non-zero basis functions:      767 in task    17
  | Maximal number of non-zero basis functions:      764 in task    18
  | Maximal number of non-zero basis functions:      762 in task    19
  | Maximal number of non-zero basis functions:      765 in task    20
  | Maximal number of non-zero basis functions:      775 in task    21
  | Maximal number of non-zero basis functions:      765 in task    22
  | Maximal number of non-zero basis functions:      782 in task    23
  | Maximal number of non-zero basis functions:      760 in task    24
  | Maximal number of non-zero basis functions:      765 in task    25
  | Maximal number of non-zero basis functions:      784 in task    26
  | Maximal number of non-zero basis functions:      789 in task    27
  | Maximal number of non-zero basis functions:      759 in task    28
  | Maximal number of non-zero basis functions:      764 in task    29
  | Maximal number of non-zero basis functions:      766 in task    30
  | Maximal number of non-zero basis functions:      764 in task    31
  | Maximal number of non-zero basis functions:      782 in task    32
  | Maximal number of non-zero basis functions:      762 in task    33
  | Maximal number of non-zero basis functions:      794 in task    34
  | Maximal number of non-zero basis functions:      754 in task    35
  | Maximal number of non-zero basis functions:      794 in task    36
  | Maximal number of non-zero basis functions:      769 in task    37
  | Maximal number of non-zero basis functions:      769 in task    38
  | Maximal number of non-zero basis functions:      754 in task    39
  | Maximal number of non-zero basis functions:      750 in task    40
  | Maximal number of non-zero basis functions:      772 in task    41
  | Maximal number of non-zero basis functions:      766 in task    42
  | Maximal number of non-zero basis functions:      773 in task    43
  | Maximal number of non-zero basis functions:      775 in task    44
  | Maximal number of non-zero basis functions:      769 in task    45
  | Maximal number of non-zero basis functions:      760 in task    46
  | Maximal number of non-zero basis functions:      798 in task    47
  | Maximal number of non-zero basis functions:      774 in task    48
  | Maximal number of non-zero basis functions:      756 in task    49
  | Maximal number of non-zero basis functions:      752 in task    50
  | Maximal number of non-zero basis functions:      765 in task    51
  | Maximal number of non-zero basis functions:      766 in task    52
  | Maximal number of non-zero basis functions:      813 in task    53
  | Maximal number of non-zero basis functions:      789 in task    54
  | Maximal number of non-zero basis functions:      774 in task    55
  Available memory per node after get_n_compute_maxes_p1 [GB]:   1031.40
  Allocating        0.453 MB for KS_eigenvector_complex
  Available memory per node after allocate_matrices [GB]:   1031.40
  Available memory per node after init_comm_sparse_local_matrix_scalapack [GB]:   1031.40
  Integrating Hamiltonian matrix: batch-based integration.
  Time summed over all CPUs for integration: real work        6.307 s, elapsed        6.718 s
  Available memory per node after integrate hamiltonian matrix [GB]:   1029.91
  Integrating overlap matrix.
  Time summed over all CPUs for integration: real work        4.466 s, elapsed        4.832 s
  Available memory per node after integrate ovlp matrix [GB]:   1029.48
  Available memory per node after ASI_callbacks invoke [GB]:   1029.48
  Available memory per node after save_overlap_scalapack [GB]:   1029.48

  Updating Kohn-Sham eigenvalues and eigenvectors using ELSI and the (modified) LAPACK eigensolver.
  Singularity check in k-point 56, task 0 (analysis for other k-points/tasks may follow below):
  Overlap matrix is not singular
  | Lowest and highest eigenvalues :  0.6821E-03,  0.9806E+01
  Finished singularity check of overlap matrix
  | Time :     0.002 s
  Starting LAPACK eigensolver
  Finished Cholesky decomposition
  | Time :     0.000 s
  Finished transformation to standard eigenproblem
  | Time :     0.001 s
  Finished solving standard eigenproblem
  | Time :     0.002 s
  Finished back-transformation of eigenvectors
  | Time :     0.000 s

  Obtaining occupation numbers and electronic chemical potential using ELSI.
  | Note that, for insulating systems, the printed 'chemical potential' value is not uniquely defined.
  | It can be anywhere in the energy gap, as long as it correctly separates occupied and unoccupied states.
  | In systems with a gap, the physically relevant chemical potential is the VBM or HOMO.

  | Chemical potential (Fermi level):    -8.50416818 eV
  Available memory per node after advance_KS_solution [GB]:   1029.37
  Writing Kohn-Sham eigenvalues.
  K-point:       1 at    0.000000    0.000000    0.000000 (in units of recip. lattice)

  State    Occupation    Eigenvalue [Ha]    Eigenvalue [eV]
      1       2.00000         -46.376523        -1261.96939
      2       2.00000         -46.376522        -1261.96938
      3       2.00000         -46.376522        -1261.96938
      4       2.00000         -46.376522        -1261.96938
      5       2.00000         -19.030217         -517.83855
      6       2.00000         -19.030215         -517.83850
      7       2.00000         -19.030215         -517.83850
      8       2.00000         -19.030215         -517.83850
      9       2.00000          -2.952179          -80.33289
     10       2.00000          -2.951786          -80.32218
     11       2.00000          -2.951786          -80.32217
     12       2.00000          -2.951785          -80.32217
     13       2.00000          -1.733117          -47.16052
     14       2.00000          -1.733117          -47.16052
     15       2.00000          -1.733117          -47.16052
     16       2.00000          -1.731498          -47.11645
     17       2.00000          -1.731497          -47.11644
     18       2.00000          -1.731497          -47.11644
     19       2.00000          -1.731497          -47.11644
     20       2.00000          -1.731497          -47.11644
     21       2.00000          -1.731497          -47.11644
     22       2.00000          -1.730443          -47.08776
     23       2.00000          -1.730443          -47.08776
     24       2.00000          -1.730443          -47.08776
     25       2.00000          -1.070775          -29.13726
     26       2.00000          -1.030743          -28.04793
     27       2.00000          -1.030742          -28.04791
     28       2.00000          -1.030742          -28.04790
     29       2.00000          -0.562606          -15.30929
     30       2.00000          -0.562606          -15.30929
     31       2.00000          -0.562606          -15.30928
     32       2.00000          -0.489977          -13.33294
     33       2.00000          -0.489976          -13.33293
     34       2.00000          -0.489976          -13.33293
     35       2.00000          -0.489975          -13.33291
     36       2.00000          -0.489975          -13.33290
     37       2.00000          -0.489975          -13.33290
     38       2.00000          -0.454824          -12.37640
     39       2.00000          -0.454824          -12.37638
     40       2.00000          -0.454824          -12.37638
     41       0.00000          -0.221929           -6.03899
     42       0.00000          -0.022502           -0.61232
     43       0.00000          -0.022502           -0.61232
     44       0.00000          -0.022502           -0.61232
     45       0.00000          -0.000185           -0.00503
     46       0.00000          -0.000181           -0.00491
     47       0.00000          -0.000180           -0.00490
     48       0.00000           0.067890            1.84739
     49       0.00000           0.067890            1.84739
     50       0.00000           0.067894            1.84748
     51       0.00000           0.229963            6.25762
     52       0.00000           0.229963            6.25762
     53       0.00000           0.229964            6.25763
     54       0.00000           0.329979            8.97919
     55       0.00000           0.329982            8.97925
     56       0.00000           0.329982            8.97925
     57       0.00000           0.329982            8.97926
     58       0.00000           0.329984            8.97932
     59       0.00000           0.329984            8.97932
     60       0.00000           0.430326           11.70978
     61       0.00000           0.430332           11.70994
     62       0.00000           0.558679           15.20242
     63       0.00000           0.558827           15.20647
     64       0.00000           0.558828           15.20648

  What follows are estimated values for band gap, HOMO, LUMO, etc.
  | They are estimated on a discrete k-point grid and not necessarily exact.
  | For converged numbers, create a DOS and/or band structure plot on a denser k-grid.

  Highest occupied state (VBM) at    -12.37638139 eV (relative to internal zero)
  | Occupation number:      2.00000000
  | K-point:       1 at    0.000000    0.000000    0.000000 (in units of recip. lattice)

  Lowest unoccupied state (CBM) at    -6.03899247 eV (relative to internal zero)
  | Occupation number:      0.00000000
  | K-point:       1 at    0.000000    0.000000    0.000000 (in units of recip. lattice)

  ESTIMATED overall HOMO-LUMO gap:      6.33738892 eV between HOMO at k-point 1 and LUMO at k-point 1
  | This appears to be a direct band gap.
  The gap value is above 0.2 eV. Unless you are using a very sparse k-point grid,
  this system is most likely an insulator or a semiconductor.
  Calculating total energy contributions from superposition of free atom densities.

  Total energy components:
  | Sum of eigenvalues            :        -608.88331320 Ha      -16568.55795119 eV
  | XC energy correction          :         -99.99700323 Ha       -2721.05690375 eV
  | XC potential correction       :         128.88052380 Ha        3507.01748755 eV
  | Free-atom electrostatic energy:        -523.88449765 Ha      -14255.62249914 eV
  | Hartree energy correction     :           0.00000000 Ha           0.00000000 eV
  | Entropy correction            :           0.00000000 Ha           0.00000000 eV
  | ---------------------------
  | Total energy                  :       -1103.88429029 Ha      -30038.21986653 eV
  | Total energy, T -> 0          :       -1103.88429029 Ha      -30038.21986653 eV  <-- do not rely on this value for anything but (periodic) metals
  | Electronic free energy        :       -1103.88429029 Ha      -30038.21986653 eV

  Derived energy quantities:
  | Kinetic energy                :        1103.96643784 Ha       30040.45521524 eV
  | Electrostatic energy          :       -2107.85372490 Ha      -57357.61817802 eV
  | Energy correction for multipole
  | error in Hartree potential    :           0.00000000 Ha           0.00000000 eV
  | Sum of eigenvalues per atom                           :       -2071.06974390 eV
  | Total energy (T->0) per atom                          :       -3754.77748332 eV  <-- do not rely on this value for anything but (periodic) metals
  | Electronic free energy per atom                       :       -3754.77748332 eV
  Initialize hartree_potential_storage
  Max. number of atoms included in rho_multipole:            8

  End scf initialization - timings             :  max(cpu_time)    wall_clock(cpu1)
  | Time for scf. initialization                :        0.444 s           0.443 s
  | Boundary condition initialization           :        0.048 s           0.048 s
  | Integration                                 :        0.231 s           0.231 s
  | Solution of K.-S. eqns.                     :        0.043 s           0.044 s
  | Grid partitioning                           :        0.017 s           0.016 s
  | Preloading free-atom quantities on grid     :        0.143 s           0.143 s
  | Free-atom superposition energy              :        0.007 s           0.007 s
  | Total energy evaluation                     :        0.000 s           0.000 s

  Partial memory accounting:
  | Current value for overall tracked memory usage:
  |   Minimum:        5.691 MB (on task  0)
  |   Maximum:        5.804 MB (on task  1)
  |   Average:        5.764 MB
  | Peak value for overall tracked memory usage:
  |   Minimum:       11.819 MB (on task 40 after allocating wave)
  |   Maximum:       12.725 MB (on task 53 after allocating wave)
  |   Average:       12.193 MB
  | Largest tracked array allocation so far:
  |   Minimum:        4.292 MB (hamiltonian_shell on task 40)
  |   Maximum:        5.043 MB (hamiltonian_shell on task 53)
  |   Average:        4.540 MB
  Note:  These values currently only include a subset of arrays which are explicitly tracked.
  The "true" memory usage will be greater.
------------------------------------------------------------
  Available memory after initialize_scf [GB]:   1029.37
  Available memory after allocating mixing [GB]:   1029.37
  Evaluating new KS density using the density matrix
  Evaluating density matrix
  Time summed over all CPUs for getting density from density matrix: real work       11.056 s, elapsed       11.898 s
  Integration grid: deviation in total charge (<rho> - N_e) =   1.421085E-14

  Time for density update prior                :  max(cpu_time)    wall_clock(cpu1)
  | self-consistency iterative process          :        0.232 s           0.232 s
  Available memory before start of SCF loop [GB]:   1029.23

------------------------------------------------------------
          Begin self-consistency iteration #    1

  Date     :  20240930, Time     :  151131.244
------------------------------------------------------------
  Pulay mixing of updated and previous charge densities.
  Available memory per node after mixing [GB]:   1029.23
  Renormalizing the density to the exact electron count on the 3D integration grid.
  | Formal number of electrons (from input files) :      80.0000000000
  | Integrated number of electrons on 3D grid     :      80.0000000000
  | Charge integration error                      :       0.0000000000
  | Normalization factor for density and gradient :       1.0000000000

  Evaluating partitioned Hartree potential by multipole expansion.
  | Original multipole sum: apparent total charge =   0.794507E-14
  | Sum of charges compensated after spline to logarithmic grids =   0.130987E-05
  | Analytical far-field extrapolation by fixed multipoles:
  | Hartree multipole sum: apparent total charge =   0.763760E-14
  Summing up the Hartree potential.
  Time summed over all CPUs for potential: real work        0.018 s, elapsed        0.019 s
  | RMS charge density error from multipole expansion :   0.158720E-02
  | Average real-space part of the electrostatic potential :      0.07401672 eV

  Integrating Hamiltonian matrix: batch-based integration.
  Time summed over all CPUs for integration: real work        5.954 s, elapsed        6.382 s

  Updating Kohn-Sham eigenvalues and eigenvectors using ELSI and the (modified) LAPACK eigensolver.
  Starting LAPACK eigensolver
  Finished Cholesky decomposition
  | Time :     0.000 s
  Finished transformation to standard eigenproblem
  | Time :     0.001 s
  Finished solving standard eigenproblem
  | Time :     0.002 s
  Finished back-transformation of eigenvectors
  | Time :     0.000 s

  Obtaining occupation numbers and electronic chemical potential using ELSI.
  | Note that, for insulating systems, the printed 'chemical potential' value is not uniquely defined.
  | It can be anywhere in the energy gap, as long as it correctly separates occupied and unoccupied states.
  | In systems with a gap, the physically relevant chemical potential is the VBM or HOMO.

  | Chemical potential (Fermi level):    -8.48059311 eV
  Writing Kohn-Sham eigenvalues.
  K-point:       1 at    0.000000    0.000000    0.000000 (in units of recip. lattice)

  State    Occupation    Eigenvalue [Ha]    Eigenvalue [eV]
      1       2.00000         -46.384271        -1262.18023
      2       2.00000         -46.384271        -1262.18023
      3       2.00000         -46.384271        -1262.18023
      4       2.00000         -46.384271        -1262.18023
      5       2.00000         -18.996953         -516.93338
      6       2.00000         -18.996952         -516.93336
      7       2.00000         -18.996952         -516.93335
      8       2.00000         -18.996952         -516.93335
      9       2.00000          -2.958433          -80.50306
     10       2.00000          -2.958043          -80.49246
     11       2.00000          -2.958043          -80.49245
     12       2.00000          -2.958043          -80.49245
     13       2.00000          -1.739319          -47.32929
     14       2.00000          -1.739319          -47.32929
     15       2.00000          -1.739319          -47.32929
     16       2.00000          -1.737721          -47.28581
     17       2.00000          -1.737721          -47.28580
     18       2.00000          -1.737721          -47.28580
     19       2.00000          -1.737721          -47.28580
     20       2.00000          -1.737721          -47.28580
     21       2.00000          -1.737721          -47.28580
     22       2.00000          -1.736681          -47.25751
     23       2.00000          -1.736681          -47.25750
     24       2.00000          -1.736681          -47.25750
     25       2.00000          -1.057675          -28.78079
     26       2.00000          -1.015983          -27.64631
     27       2.00000          -1.015982          -27.64628
     28       2.00000          -1.015982          -27.64628
     29       2.00000          -0.552513          -15.03465
     30       2.00000          -0.552513          -15.03465
     31       2.00000          -0.552513          -15.03463
     32       2.00000          -0.476524          -12.96688
     33       2.00000          -0.476523          -12.96686
     34       2.00000          -0.476523          -12.96686
     35       2.00000          -0.476523          -12.96685
     36       2.00000          -0.476523          -12.96684
     37       2.00000          -0.476523          -12.96684
     38       2.00000          -0.439725          -11.96554
     39       2.00000          -0.439725          -11.96552
     40       2.00000          -0.439725          -11.96552
     41       0.00000          -0.218274           -5.93954
     42       0.00000          -0.022539           -0.61331
     43       0.00000          -0.022539           -0.61331
     44       0.00000          -0.022539           -0.61331
     45       0.00000           0.000154            0.00418
     46       0.00000           0.000158            0.00429
     47       0.00000           0.000158            0.00431
     48       0.00000           0.075903            2.06541
     49       0.00000           0.075903            2.06541
     50       0.00000           0.075906            2.06550
     51       0.00000           0.230019            6.25913
     52       0.00000           0.230019            6.25913
     53       0.00000           0.230019            6.25914
     54       0.00000           0.334054            9.09008
     55       0.00000           0.334057            9.09015
     56       0.00000           0.334057            9.09015
     57       0.00000           0.334057            9.09016
     58       0.00000           0.334059            9.09022
     59       0.00000           0.334059            9.09022
     60       0.00000           0.431069           11.72997
     61       0.00000           0.431075           11.73015
     62       0.00000           0.559416           15.22248
     63       0.00000           0.559500           15.22476
     64       0.00000           0.559500           15.22476

  What follows are estimated values for band gap, HOMO, LUMO, etc.
  | They are estimated on a discrete k-point grid and not necessarily exact.
  | For converged numbers, create a DOS and/or band structure plot on a denser k-grid.

  Highest occupied state (VBM) at    -11.96552126 eV (relative to internal zero)
  | Occupation number:      2.00000000
  | K-point:       1 at    0.000000    0.000000    0.000000 (in units of recip. lattice)

  Lowest unoccupied state (CBM) at    -5.93953967 eV (relative to internal zero)
  | Occupation number:      0.00000000
  | K-point:       1 at    0.000000    0.000000    0.000000 (in units of recip. lattice)

  ESTIMATED overall HOMO-LUMO gap:      6.02598159 eV between HOMO at k-point 1 and LUMO at k-point 1
  | This appears to be a direct band gap.
  The gap value is above 0.2 eV. Unless you are using a very sparse k-point grid,
  this system is most likely an insulator or a semiconductor.

  Total energy components:
  | Sum of eigenvalues            :        -608.46065296 Ha      -16557.05678078 eV
  | XC energy correction          :        -100.07306510 Ha       -2723.12665258 eV
  | XC potential correction       :         128.97911370 Ha        3509.70025538 eV
  | Free-atom electrostatic energy:        -523.88449765 Ha      -14255.62249914 eV
  | Hartree energy correction     :          -0.38411478 Ha         -10.45229510 eV
  | Entropy correction            :           0.00000000 Ha           0.00000000 eV
  | ---------------------------
  | Total energy                  :       -1103.82321679 Ha      -30036.55797221 eV
  | Total energy, T -> 0          :       -1103.82321679 Ha      -30036.55797221 eV  <-- do not rely on this value for anything but (periodic) metals
  | Electronic free energy        :       -1103.82321679 Ha      -30036.55797221 eV

  Derived energy quantities:
  | Kinetic energy                :        1104.38539209 Ha       30051.85554048 eV
  | Electrostatic energy          :       -2108.13554379 Ha      -57365.28686012 eV
  | Energy correction for multipole
  | error in Hartree potential    :           0.00106100 Ha           0.02887118 eV
  | Sum of eigenvalues per atom                           :       -2069.63209760 eV
  | Total energy (T->0) per atom                          :       -3754.56974653 eV  <-- do not rely on this value for anything but (periodic) metals
  | Electronic free energy per atom                       :       -3754.56974653 eV
  Evaluating new KS density using the density matrix
  Evaluating density matrix
  Time summed over all CPUs for getting density from density matrix: real work       10.502 s, elapsed       11.296 s
  Integration grid: deviation in total charge (<rho> - N_e) =   1.421085E-14

  Self-consistency convergence accuracy:
  | Change of charge density      :  0.5739E+00
  | Change of unmixed KS density  :  0.3995E+02
  | Change of sum of eigenvalues  :  0.1150E+02 eV
  | Change of total energy        :  0.1662E+01 eV


------------------------------------------------------------
  End self-consistency iteration #     1       :  max(cpu_time)    wall_clock(cpu1)
  | Time for this iteration                     :        0.410 s           0.410 s
  | Charge density update                       :        0.220 s           0.220 s
  | Density mixing                              :        0.002 s           0.001 s
  | Hartree multipole update                    :        0.002 s           0.002 s
  | Hartree multipole summation                 :        0.021 s           0.022 s
  | Integration                                 :        0.127 s           0.127 s
  | Solution of K.-S. eqns.                     :        0.036 s           0.037 s
  | Total energy evaluation                     :        0.000 s           0.000 s

  Partial memory accounting:
  | Current value for overall tracked memory usage:
  |   Minimum:        6.146 MB (on task 55)
  |   Maximum:        6.298 MB (on task 11)
  |   Average:        6.239 MB
  | Peak value for overall tracked memory usage:
  |   Minimum:       14.083 MB (on task 40 after allocating gradient_basis_wave)
  |   Maximum:       15.149 MB (on task 53 after allocating gradient_basis_wave)
  |   Average:       14.522 MB
  | Largest tracked array allocation so far:
  |   Minimum:        4.292 MB (hamiltonian_shell on task 40)
  |   Maximum:        5.043 MB (hamiltonian_shell on task 53)
  |   Average:        4.540 MB
  Note:  These values currently only include a subset of arrays which are explicitly tracked.
  The "true" memory usage will be greater.
------------------------------------------------------------

------------------------------------------------------------
          Begin self-consistency iteration #    2

  Date     :  20240930, Time     :  151131.655
------------------------------------------------------------
  Pulay mixing of updated and previous charge densities.
  Available memory per node after mixing [GB]:   1029.12
  Renormalizing the density to the exact electron count on the 3D integration grid.
  | Formal number of electrons (from input files) :      80.0000000000
  | Integrated number of electrons on 3D grid     :      80.0000000000
  | Charge integration error                      :       0.0000000000
  | Normalization factor for density and gradient :       1.0000000000

  Evaluating partitioned Hartree potential by multipole expansion.
  | Original multipole sum: apparent total charge =   0.147586E-14
  | Sum of charges compensated after spline to logarithmic grids =   0.867342E-05
  | Analytical far-field extrapolation by fixed multipoles:
  | Hartree multipole sum: apparent total charge =   0.196782E-14
  Summing up the Hartree potential.
  Time summed over all CPUs for potential: real work        0.019 s, elapsed        0.020 s
  | RMS charge density error from multipole expansion :   0.104505E-01
  | Average real-space part of the electrostatic potential :      0.46751807 eV

  Integrating Hamiltonian matrix: batch-based integration.
  Time summed over all CPUs for integration: real work        5.936 s, elapsed        6.322 s

  Updating Kohn-Sham eigenvalues and eigenvectors using ELSI and the (modified) LAPACK eigensolver.
  Starting LAPACK eigensolver
  Finished Cholesky decomposition
  | Time :     0.000 s
  Finished transformation to standard eigenproblem
  | Time :     0.001 s
  Finished solving standard eigenproblem
  | Time :     0.002 s
  Finished back-transformation of eigenvectors
  | Time :     0.000 s

  Obtaining occupation numbers and electronic chemical potential using ELSI.
  | Note that, for insulating systems, the printed 'chemical potential' value is not uniquely defined.
  | It can be anywhere in the energy gap, as long as it correctly separates occupied and unoccupied states.
  | In systems with a gap, the physically relevant chemical potential is the VBM or HOMO.

  | Chemical potential (Fermi level):    -8.36971185 eV
  What follows are estimated values for band gap, HOMO, LUMO, etc.
  | They are estimated on a discrete k-point grid and not necessarily exact.
  | For converged numbers, create a DOS and/or band structure plot on a denser k-grid.

  Highest occupied state (VBM) at     -9.84671933 eV (relative to internal zero)
  | Occupation number:      2.00000000
  | K-point:       1 at    0.000000    0.000000    0.000000 (in units of recip. lattice)

  Lowest unoccupied state (CBM) at    -5.34395408 eV (relative to internal zero)
  | Occupation number:      0.00000000
  | K-point:       1 at    0.000000    0.000000    0.000000 (in units of recip. lattice)

  ESTIMATED overall HOMO-LUMO gap:      4.50276525 eV between HOMO at k-point 1 and LUMO at k-point 1
  | This appears to be a direct band gap.
  The gap value is above 0.2 eV. Unless you are using a very sparse k-point grid,
  this system is most likely an insulator or a semiconductor.

  Checking to see if s.c.f. parameters should be adjusted.
  The system likely has a gap. Increased the default Pulay mixing parameter (charge_mix_param). Value:   0.200000 .
  Kept the default occupation width. Value:   0.010000 eV.

  Total energy components:
  | Sum of eigenvalues            :        -606.37425820 Ha      -16500.28309065 eV
  | XC energy correction          :        -100.48223643 Ha       -2734.26077095 eV
  | XC potential correction       :         129.50942980 Ha        3524.13089067 eV
  | Free-atom electrostatic energy:        -523.88449765 Ha      -14255.62249914 eV
  | Hartree energy correction     :          -2.42632118 Ha         -66.02355858 eV
  | Entropy correction            :           0.00000000 Ha           0.00000000 eV
  | ---------------------------
  | Total energy                  :       -1103.65788366 Ha      -30032.05902864 eV
  | Total energy, T -> 0          :       -1103.65788366 Ha      -30032.05902864 eV  <-- do not rely on this value for anything but (periodic) metals
  | Electronic free energy        :       -1103.65788366 Ha      -30032.05902864 eV

  Derived energy quantities:
  | Kinetic energy                :        1106.24777201 Ha       30102.53347652 eV
  | Electrostatic energy          :       -2109.42341924 Ha      -57400.33173422 eV
  | Energy correction for multipole
  | error in Hartree potential    :           0.00667368 Ha           0.18160019 eV
  | Sum of eigenvalues per atom                           :       -2062.53538633 eV
  | Total energy (T->0) per atom                          :       -3754.00737858 eV  <-- do not rely on this value for anything but (periodic) metals
  | Electronic free energy per atom                       :       -3754.00737858 eV
  Evaluating new KS density using the density matrix
  Evaluating density matrix
  Time summed over all CPUs for getting density from density matrix: real work       10.580 s, elapsed       11.322 s
  Integration grid: deviation in total charge (<rho> - N_e) =   1.421085E-14

  Self-consistency convergence accuracy:
  | Change of charge density      :  0.4888E+00
  | Change of unmixed KS density  :  0.6277E-01
  | Change of sum of eigenvalues  :  0.5677E+02 eV
  | Change of total energy        :  0.4499E+01 eV


------------------------------------------------------------
  End self-consistency iteration #     2       :  max(cpu_time)    wall_clock(cpu1)
  | Time for this iteration                     :        0.404 s           0.405 s
  | Charge density update                       :        0.220 s           0.221 s
  | Density mixing                              :        0.001 s           0.001 s
  | Hartree multipole update                    :        0.001 s           0.001 s
  | Hartree multipole summation                 :        0.022 s           0.022 s
  | Integration                                 :        0.123 s           0.123 s
  | Solution of K.-S. eqns.                     :        0.036 s           0.037 s
  | Total energy evaluation                     :        0.000 s           0.000 s

  Partial memory accounting:
  | Current value for overall tracked memory usage:
  |   Minimum:        6.147 MB (on task 55)
  |   Maximum:        6.299 MB (on task 11)
  |   Average:        6.239 MB
  | Peak value for overall tracked memory usage:
  |   Minimum:       14.083 MB (on task 40 after allocating gradient_basis_wave)
[...]
   - k =  -0.500  0.167  0.357
   - k =  -0.500  0.167  0.286
   - k =  -0.500  0.167  0.214
   - k =  -0.500  0.167  0.143
   - k =  -0.500  0.167  0.071
   - k =  -0.500  0.167  0.000
   - k =  -0.500  0.167 -0.071
   - k =  -0.500  0.167 -0.143
   - k =  -0.500  0.167 -0.214
   - k =  -0.500  0.167 -0.286
   - k =  -0.500  0.167 -0.357
   - k =  -0.500  0.167 -0.429
   - k =  -0.500  0.167 -0.500

  |-> Computing Wannier center evolution at k-point number:      3

  Treating all   15 k-points in band plot segment #   4:
   Sampling over :
   - k =  -0.500  0.500  0.500
   - k =  -0.500  0.500  0.429
   - k =  -0.500  0.500  0.357
   - k =  -0.500  0.500  0.286
   - k =  -0.500  0.500  0.214
   - k =  -0.500  0.500  0.143
   - k =  -0.500  0.500  0.071
   - k =  -0.500  0.500  0.000
   - k =  -0.500  0.500 -0.071
   - k =  -0.500  0.500 -0.143
   - k =  -0.500  0.500 -0.214
   - k =  -0.500  0.500 -0.286
   - k =  -0.500  0.500 -0.357
   - k =  -0.500  0.500 -0.429
   - k =  -0.500  0.500 -0.500

  |-> Computing Wannier center evolution at k-point number:      4

  Treating all   15 k-points in band plot segment #   5:
   Sampling over :
   - k =  -0.167 -0.500  0.500
   - k =  -0.167 -0.500  0.429
   - k =  -0.167 -0.500  0.357
   - k =  -0.167 -0.500  0.286
   - k =  -0.167 -0.500  0.214
   - k =  -0.167 -0.500  0.143
   - k =  -0.167 -0.500  0.071
   - k =  -0.167 -0.500  0.000
   - k =  -0.167 -0.500 -0.071
   - k =  -0.167 -0.500 -0.143
   - k =  -0.167 -0.500 -0.214
   - k =  -0.167 -0.500 -0.286
   - k =  -0.167 -0.500 -0.357
   - k =  -0.167 -0.500 -0.429
   - k =  -0.167 -0.500 -0.500

  |-> Computing Wannier center evolution at k-point number:      5

  Treating all   15 k-points in band plot segment #   6:
   Sampling over :
   - k =  -0.167 -0.167  0.500
   - k =  -0.167 -0.167  0.429
   - k =  -0.167 -0.167  0.357
   - k =  -0.167 -0.167  0.286
   - k =  -0.167 -0.167  0.214
   - k =  -0.167 -0.167  0.143
   - k =  -0.167 -0.167  0.071
   - k =  -0.167 -0.167  0.000
   - k =  -0.167 -0.167 -0.071
   - k =  -0.167 -0.167 -0.143
   - k =  -0.167 -0.167 -0.214
   - k =  -0.167 -0.167 -0.286
   - k =  -0.167 -0.167 -0.357
   - k =  -0.167 -0.167 -0.429
   - k =  -0.167 -0.167 -0.500

  |-> Computing Wannier center evolution at k-point number:      6

  Treating all   15 k-points in band plot segment #   7:
   Sampling over :
   - k =  -0.167  0.167  0.500
   - k =  -0.167  0.167  0.429
   - k =  -0.167  0.167  0.357
   - k =  -0.167  0.167  0.286
   - k =  -0.167  0.167  0.214
   - k =  -0.167  0.167  0.143
   - k =  -0.167  0.167  0.071
   - k =  -0.167  0.167  0.000
   - k =  -0.167  0.167 -0.071
   - k =  -0.167  0.167 -0.143
   - k =  -0.167  0.167 -0.214
   - k =  -0.167  0.167 -0.286
   - k =  -0.167  0.167 -0.357
   - k =  -0.167  0.167 -0.429
   - k =  -0.167  0.167 -0.500

  |-> Computing Wannier center evolution at k-point number:      7

  Treating all   15 k-points in band plot segment #   8:
   Sampling over :
   - k =  -0.167  0.500  0.500
   - k =  -0.167  0.500  0.429
   - k =  -0.167  0.500  0.357
   - k =  -0.167  0.500  0.286
   - k =  -0.167  0.500  0.214
   - k =  -0.167  0.500  0.143
   - k =  -0.167  0.500  0.071
   - k =  -0.167  0.500  0.000
   - k =  -0.167  0.500 -0.071
   - k =  -0.167  0.500 -0.143
   - k =  -0.167  0.500 -0.214
   - k =  -0.167  0.500 -0.286
   - k =  -0.167  0.500 -0.357
   - k =  -0.167  0.500 -0.429
   - k =  -0.167  0.500 -0.500

  |-> Computing Wannier center evolution at k-point number:      8

  Treating all   15 k-points in band plot segment #   9:
   Sampling over :
   - k =   0.167 -0.500  0.500
   - k =   0.167 -0.500  0.429
   - k =   0.167 -0.500  0.357
   - k =   0.167 -0.500  0.286
   - k =   0.167 -0.500  0.214
   - k =   0.167 -0.500  0.143
   - k =   0.167 -0.500  0.071
   - k =   0.167 -0.500  0.000
   - k =   0.167 -0.500 -0.071
   - k =   0.167 -0.500 -0.143
   - k =   0.167 -0.500 -0.214
   - k =   0.167 -0.500 -0.286
   - k =   0.167 -0.500 -0.357
   - k =   0.167 -0.500 -0.429
   - k =   0.167 -0.500 -0.500

  |-> Computing Wannier center evolution at k-point number:      9

  Treating all   15 k-points in band plot segment #  10:
   Sampling over :
   - k =   0.167 -0.167  0.500
   - k =   0.167 -0.167  0.429
   - k =   0.167 -0.167  0.357
   - k =   0.167 -0.167  0.286
   - k =   0.167 -0.167  0.214
   - k =   0.167 -0.167  0.143
   - k =   0.167 -0.167  0.071
   - k =   0.167 -0.167  0.000
   - k =   0.167 -0.167 -0.071
   - k =   0.167 -0.167 -0.143
   - k =   0.167 -0.167 -0.214
   - k =   0.167 -0.167 -0.286
   - k =   0.167 -0.167 -0.357
   - k =   0.167 -0.167 -0.429
   - k =   0.167 -0.167 -0.500

  |-> Computing Wannier center evolution at k-point number:     10

  Treating all   15 k-points in band plot segment #  11:
   Sampling over :
   - k =   0.167  0.167  0.500
   - k =   0.167  0.167  0.429
   - k =   0.167  0.167  0.357
   - k =   0.167  0.167  0.286
   - k =   0.167  0.167  0.214
   - k =   0.167  0.167  0.143
   - k =   0.167  0.167  0.071
   - k =   0.167  0.167  0.000
   - k =   0.167  0.167 -0.071
   - k =   0.167  0.167 -0.143
   - k =   0.167  0.167 -0.214
   - k =   0.167  0.167 -0.286
   - k =   0.167  0.167 -0.357
   - k =   0.167  0.167 -0.429
   - k =   0.167  0.167 -0.500

  |-> Computing Wannier center evolution at k-point number:     11

  Treating all   15 k-points in band plot segment #  12:
   Sampling over :
   - k =   0.167  0.500  0.500
   - k =   0.167  0.500  0.429
   - k =   0.167  0.500  0.357
   - k =   0.167  0.500  0.286
   - k =   0.167  0.500  0.214
   - k =   0.167  0.500  0.143
   - k =   0.167  0.500  0.071
   - k =   0.167  0.500  0.000
   - k =   0.167  0.500 -0.071
   - k =   0.167  0.500 -0.143
   - k =   0.167  0.500 -0.214
   - k =   0.167  0.500 -0.286
   - k =   0.167  0.500 -0.357
   - k =   0.167  0.500 -0.429
   - k =   0.167  0.500 -0.500

  |-> Computing Wannier center evolution at k-point number:     12

  Treating all   15 k-points in band plot segment #  13:
   Sampling over :
   - k =   0.500 -0.500  0.500
   - k =   0.500 -0.500  0.429
   - k =   0.500 -0.500  0.357
   - k =   0.500 -0.500  0.286
   - k =   0.500 -0.500  0.214
   - k =   0.500 -0.500  0.143
   - k =   0.500 -0.500  0.071
   - k =   0.500 -0.500  0.000
   - k =   0.500 -0.500 -0.071
   - k =   0.500 -0.500 -0.143
   - k =   0.500 -0.500 -0.214
   - k =   0.500 -0.500 -0.286
   - k =   0.500 -0.500 -0.357
   - k =   0.500 -0.500 -0.429
   - k =   0.500 -0.500 -0.500

  |-> Computing Wannier center evolution at k-point number:     13

  Treating all   15 k-points in band plot segment #  14:
   Sampling over :
   - k =   0.500 -0.167  0.500
   - k =   0.500 -0.167  0.429
   - k =   0.500 -0.167  0.357
   - k =   0.500 -0.167  0.286
   - k =   0.500 -0.167  0.214
   - k =   0.500 -0.167  0.143
   - k =   0.500 -0.167  0.071
   - k =   0.500 -0.167  0.000
   - k =   0.500 -0.167 -0.071
   - k =   0.500 -0.167 -0.143
   - k =   0.500 -0.167 -0.214
   - k =   0.500 -0.167 -0.286
   - k =   0.500 -0.167 -0.357
   - k =   0.500 -0.167 -0.429
   - k =   0.500 -0.167 -0.500

  |-> Computing Wannier center evolution at k-point number:     14

  Treating all   15 k-points in band plot segment #  15:
   Sampling over :
   - k =   0.500  0.167  0.500
   - k =   0.500  0.167  0.429
   - k =   0.500  0.167  0.357
   - k =   0.500  0.167  0.286
   - k =   0.500  0.167  0.214
   - k =   0.500  0.167  0.143
   - k =   0.500  0.167  0.071
   - k =   0.500  0.167  0.000
   - k =   0.500  0.167 -0.071
   - k =   0.500  0.167 -0.143
   - k =   0.500  0.167 -0.214
   - k =   0.500  0.167 -0.286
   - k =   0.500  0.167 -0.357
   - k =   0.500  0.167 -0.429
   - k =   0.500  0.167 -0.500

  |-> Computing Wannier center evolution at k-point number:     15

  Treating all   15 k-points in band plot segment #  16:
   Sampling over :
   - k =   0.500  0.500  0.500
   - k =   0.500  0.500  0.429
   - k =   0.500  0.500  0.357
   - k =   0.500  0.500  0.286
   - k =   0.500  0.500  0.214
   - k =   0.500  0.500  0.143
   - k =   0.500  0.500  0.071
   - k =   0.500  0.500  0.000
   - k =   0.500  0.500 -0.071
   - k =   0.500  0.500 -0.143
   - k =   0.500  0.500 -0.214
   - k =   0.500  0.500 -0.286
   - k =   0.500  0.500 -0.357
   - k =   0.500  0.500 -0.429
   - k =   0.500  0.500 -0.500

  |-> Computing Wannier center evolution at k-point number:     16
  *-> Finished with polarization directive nr.   3
  | Evaluation of the polarization for directive nr.     3
   - Ionic      polarization along rec. latt. vec.    3 is:        2.350487E-15 C/m^2
   - Berry term: Preliminary Electronic polarization along rec. latt. vec.    3 is:     -661.603268E-03 C/m^2 before branch-mapping
   --> Detailed listing before/after branch mapping in terms of the polarization quantum P0=     -882.137691E-03 C/m^2
     | k-string    1 :         1.000000E+00 /      -540.012479E-15 P0
     | k-string    2 :         1.000000E+00 /      -255.795385E-15 P0
     | k-string    3 :         1.000000E+00 /      -227.373675E-15 P0
     | k-string    4 :         1.000000E+00 /      -540.012479E-15 P0
     | k-string    5 :       999.995687E-03 /        -4.313479E-06 P0
     | k-string    6 :       999.990171E-03 /        -9.829296E-06 P0
     | k-string    7 :       999.990171E-03 /        -9.829296E-06 P0
     | k-string    8 :       999.995687E-03 /        -4.313479E-06 P0
     | k-string    9 :         4.313478E-06 /         4.313478E-06 P0
     | k-string   10 :         9.829295E-06 /         9.829295E-06 P0
     | k-string   11 :         9.829295E-06 /         9.829295E-06 P0
     | k-string   12 :         4.313478E-06 /         4.313478E-06 P0
     | k-string   13 :         1.000000E+00 /      -540.012479E-15 P0
     | k-string   14 :         1.000000E+00 /      -255.795385E-15 P0
     | k-string   15 :         1.000000E+00 /      -198.951966E-15 P0
     | k-string   16 :         1.000000E+00 /      -568.434189E-15 P0
   - Berry term: Electronic polarization along rec. latt. vec.    3 is:      308.501416E-15 C/m^2 after branch-mapping

   - Dipole term: Preliminary Electronic polarization along rec. latt. vec.    3 is:     -302.607542E-15 C/m^2 before branch-mapping
   --> Detailed listing before/after branch mapping in terms of the polarization quantum P0=     -882.137691E-03 C/m^2
     | k-string    1 :       485.388331E-15 /       485.388331E-15 P0
     | k-string    2 :       292.933821E-15 /       292.933821E-15 P0
     | k-string    3 :       292.900607E-15 /       292.900607E-15 P0
     | k-string    4 :       485.252030E-15 /       485.252030E-15 P0
     | k-string    5 :       277.241431E-15 /       277.241431E-15 P0
     | k-string    6 :       323.965253E-15 /       323.965253E-15 P0
     | k-string    7 :       302.746321E-15 /       302.746321E-15 P0
     | k-string    8 :       279.554933E-15 /       279.554933E-15 P0
     | k-string    9 :       275.343059E-15 /       275.343059E-15 P0
     | k-string   10 :       320.615835E-15 /       320.615835E-15 P0
     | k-string   11 :       326.627174E-15 /       326.627174E-15 P0
     | k-string   12 :       281.496322E-15 /       281.496322E-15 P0
     | k-string   13 :       482.535686E-15 /       482.535686E-15 P0
     | k-string   14 :       288.811470E-15 /       288.811470E-15 P0
     | k-string   15 :       290.369723E-15 /       290.369723E-15 P0
     | k-string   16 :       482.840393E-15 /       482.840393E-15 P0
   - Dipole term: Electronic polarization along rec. latt. vec.    3 is:     -284.017177E-15 C/m^2 after branch-mapping



  Wannier center evolution                                :  max(cpu_time) wall_clock(cpu1)
  | Total Time                                            :          0.778            0.804
------------------------------------------------------------

  Summary for all Polarization Directives:

  * Ionic Polarization along rec. latt. vecs. is (C/m^2):        -7.057104E-03     -176.427540E-09        2.350487E-15
  * Electronic Contributions:
    Summarizing all directives:
    - Directive    1 in direction of rec. latt. vec.  1 yields the electronic polarization (Berry term):           9.018834E-03 (C/m^2)
    - Directive    2 in direction of rec. latt. vec.  2 yields the electronic polarization (Berry term):          26.867634E-03 (C/m^2)
    - Directive    3 in direction of rec. latt. vec.  3 yields the electronic polarization (Berry term):         308.501416E-15 (C/m^2)
    - Directive    1 in direction of rec. latt. vec.  1 yields the electronic polarization (Dipole term):       -206.991586E-06 (C/m^2)
    - Directive    2 in direction of rec. latt. vec.  2 yields the electronic polarization (Dipole term):        355.853935E-15 (C/m^2)
    - Directive    3 in direction of rec. latt. vec.  3 yields the electronic polarization (Dipole term):       -284.017177E-15 (C/m^2)
  * Full Polarizations (Electron + Ions):
    Summarizing all directives:
    - Directive    1 in direction of rec. latt. vec.  1 yields the full polarization      :         1.754738E-03 (C/m^2)
    - Directive    2 in direction of rec. latt. vec.  2 yields the full polarization      :        26.867458E-03 (C/m^2)
    - Directive    3 in direction of rec. latt. vec.  3 yields the full polarization      :        26.834726E-15 (C/m^2)
  | Cartesian Polarization                    1.754738E-03         26.867458E-03         26.834726E-15

------------------------------------------------------------


------------------------------------------------------------------------------
  Final output of selected total energy values:

  The following output summarizes some interesting total energy values
  at the end of a run (AFTER all relaxation, molecular dynamics, etc.).

  | Total energy of the DFT / Hartree-Fock s.c.f. calculation      :         -30031.902247300 eV
  | Final zero-broadening corrected energy (caution - metals only) :         -30031.902247300 eV
  | For reference only, the value of 1 Hartree used in FHI-aims is :             27.211384500 eV
  | For reference only, the overall average (free atom contribution
  | + realspace contribution) of the electrostatic potential after
  | s.c.f. convergence is                                          :            -16.305981302 eV

  Before relying on these values, please be sure to understand exactly which
  total energy value is referred to by a given number. Different objects may
  all carry the same name 'total energy'. Definitions:

  Total energy of the DFT / Hartree-Fock s.c.f. calculation:
  | Note that this energy does not include ANY quantities calculated after the
  | s.c.f. cycle, in particular not ANY RPA, MP2, etc. many-body perturbation terms.

  Final zero-broadening corrected energy:
  | For metallic systems only, a broadening of the occupation numbers at the Fermi
  | level can be extrapolated back to zero broadening by an electron-gas inspired
  | formula. For all systems that are not real metals, this value can be
  | meaningless and should be avoided.

------------------------------------------------------------------------------
  Methods described in the following list of references were used in this FHI-aims run.
  If you publish the results, please make sure to cite these reference if they apply.
  FHI-aims is an academic code, and for our developers (often, Ph.D. students
  and postdocs), scientific credit in the community is essential.
  Thank you for helping us!

  For any use of FHI-aims, please cite:

    Volker Blum, Ralf Gehrke, Felix Hanke, Paula Havu, Ville Havu,
    Xinguo Ren, Karsten Reuter, and Matthias Scheffler
    'Ab initio molecular simulations with numeric atom-centered orbitals'
    Computer Physics Communications 180, 2175-2196 (2009)
    http://doi.org/10.1016/j.cpc.2009.06.022


  The provided symmetry information was generated with SPGlib:

    Atsushi Togo, Yusuke Seto, Dimitar Pashov
    SPGlib 1.7.3 obtained from http://spglib.sourceforge.net
    Licence: New BSD license
    Copyright (C) 2008 Atsushi Togo


  The ELSI infrastructure was used in your run to solve the Kohn-Sham electronic structure.
  Please check out https://wordpress.elsi-interchange.org to learn more.
  If scalability is important for your project, please acknowledge ELSI by citing:

    V. W-z. Yu, F. Corsetti, A. Garcia, W. P. Huhn, M. Jacquelin, W. Jia,
    B. Lange, L. Lin, J. Lu, W. Mi, A. Seifitokaldani, A. Vazquez-Mayagoitia,
    C. Yang, H. Yang, and V. Blum
    'ELSI: A unified software interface for Kohn-Sham electronic structure solvers'
    Computer Physics Communications 222, 267-285 (2018).
    http://doi.org/10.1016/j.cpc.2017.09.007


  For the real-space grid partitioning and parallelization used in this calculation, please cite:

    Ville Havu, Volker Blum, Paula Havu, and Matthias Scheffler,
    'Efficient O(N) integration for all-electron electronic structure calculation'
    'using numerically tabulated basis functions'
    Journal of Computational Physics 228, 8367-8379 (2009).
    http://doi.org/10.1016/j.jcp.2009.08.008

  Of course, there are many other important community references, e.g., those cited in the
  above references. Our list is limited to references that describe implementations in the
  FHI-aims code. The reason is purely practical (length of this list) - please credit others as well.

------------------------------------------------------------
          Leaving FHI-aims.
          Date     :  20240930, Time     :  151138.774

          Computational steps:
          | Number of self-consistency cycles          :           13
          | Number of SCF (re)initializations          :            1

          Detailed time accounting                     :  max(cpu_time)    wall_clock(cpu1)
          | Total time                                  :        8.469 s           8.473 s
          | Preparation time                            :        0.171 s           0.169 s
          | Boundary condition initalization            :        0.048 s           0.048 s
          | Grid partitioning                           :        0.017 s           0.016 s
          | Preloading free-atom quantities on grid     :        0.143 s           0.143 s
          | Free-atom superposition energy              :        0.007 s           0.007 s
          | Total time for integrations                 :        1.854 s           1.851 s
          | Total time for solution of K.-S. equations  :        0.491 s           0.506 s
          | Total time for density update               :        2.908 s           2.909 s
          | Total time for mixing                       :        0.010 s           0.012 s
          | Total time for Hartree multipole update     :        0.019 s           0.022 s
          | Total time for Hartree multipole sum        :        0.292 s           0.293 s
          | Total time for total energy evaluation      :        0.002 s           0.002 s
          | Total time for scaled ZORA corrections      :        0.000 s           0.000 s
          | Total time for Wannier Center Evolution     :        2.417 s           2.418 s

          Partial memory accounting:
          | Residual value for overall tracked memory usage across tasks:     0.000000 MB (should be 0.000000 MB)
          | Peak values for overall tracked memory usage:
          |   Minimum:       15.735 MB (on task 40 after allocating work_ovl)
          |   Maximum:       16.613 MB (on task 14 after allocating work_ovl)
          |   Average:       16.094 MB
          | Largest tracked array allocation:
          |   Minimum:        4.292 MB (hamiltonian_shell on task 40)
          |   Maximum:        5.043 MB (hamiltonian_shell on task 53)
          |   Average:        4.540 MB
          Note:  These values currently only include a subset of arrays which are explicitly tracked.
          The "true" memory usage will be greater.

          Have a nice day.
------------------------------------------------------------
