------------------------------------------------------------
          Invoking FHI-aims ...

          When using FHI-aims, please cite the following reference:

            Volker Blum, Ralf Gehrke, Felix Hanke, Paula Havu,
            Ville Havu, Xinguo Ren, Karsten Reuter, and Matthias Scheffler,
            'Ab Initio Molecular Simulations with Numeric Atom-Centered Orbitals',
            Computer Physics Communications 180, 2175-2196 (2009)

          In addition, many other developments in FHI-aims are likely important for
          your particular application. If so, please cite them. A partial list of references
          is written at the end of this file. Thank you for giving credit to the authors
          of these developments.

          For general information about FHI-aims please find us at

            https://fhi-aims.org

          Online tutorials can be found at

            https://fhi-aims-club.gitlab.io/tutorials/tutorials-overview/

          For any questions about FHI-aims, please visit our slack channel at

            https://fhi-aims.slack.com

          and our main development and support site at

            https://aims-git.rz-berlin.mpg.de .

          The latter site, in particular, has a wiki to collect information, as well
          as an issue tracker to log discussions, suggest improvements, and report issues
          or bugs. https://aims-git.rz-berlin.mpg.de is also the main development site
          of the project and all new and updated code versions can be obtained there.
          Please send an email to aims-coordinators@fhi-berlin.mpg.de and we will add
          you to these sites. They are for you and everyone is welcome there.

------------------------------------------------------------



  Date     :  20240930, Time     :  163339.660
  Time zero on CPU 1             :   0.147086000000000E+00  s.
  Internal wall clock time zero  :           496946019.660  s.

  FHI-aims created a unique identifier for this run for later identification
  aims_uuid : 2267E5C8-C84E-404A-A191-49FD63188F70

  Build configuration of the current instance of FHI-aims
  -------------------------------------------------------
  FHI-aims version      : 240507
  Commit number         : 189b292af
  CMake host system     : Linux-6.7.12-amd64
  CMake version         : 3.29.6
  Fortran compiler      : /opt/software/openmpi-4.1.6_intel/bin/mpif90 (Intel) version 2021.8.0.20221119
  Fortran compiler flags: -O3 -march=core-avx2 -fma -ftz -align array64byte -fomit-frame-pointer
  C compiler            : /usr/bin/cc (GNU) version 13.2.0
  C compiler flags      : -Ofast
  C++ compiler          : /usr/bin/g++ (GNU) version 13.2.0
  C++ compiler flags    : -Ofast
  HIP compiler          :
  HIP compiler flags    :
  HIP GPU arch          :
  Using MPI
  Using ScaLAPACK
  Using LibXC
  Using i-PI
  Using RLSY
  Linking against: /opt/software/intel/oneapi/mkl/2023.0.0/lib/intel64/libmkl_intel_lp64.so
                   /opt/software/intel/oneapi/mkl/2023.0.0/lib/intel64/libmkl_sequential.so
                   /opt/software/intel/oneapi/mkl/2023.0.0/lib/intel64/libmkl_core.so
                   /opt/software/intel/oneapi/mkl/2023.0.0/lib/intel64/libmkl_scalapack_lp64.so
                   /opt/software/intel/oneapi/mkl/2023.0.0/lib/intel64/libmkl_blacs_openmpi_lp64.so

  Using      108 parallel tasks.
  Task        0 on host h08 reporting.
  Task        1 on host h08 reporting.
  Task        2 on host h08 reporting.
  Task        3 on host h08 reporting.
  Task        4 on host h08 reporting.
  Task        5 on host h08 reporting.
  Task        6 on host h08 reporting.
  Task        7 on host h08 reporting.
  Task        8 on host h08 reporting.
  Task        9 on host h08 reporting.
  Task       10 on host h08 reporting.
  Task       11 on host h08 reporting.
  Task       12 on host h08 reporting.
  Task       13 on host h08 reporting.
  Task       14 on host h08 reporting.
  Task       15 on host h08 reporting.
  Task       16 on host h08 reporting.
  Task       17 on host h08 reporting.
  Task       18 on host h08 reporting.
  Task       19 on host h08 reporting.
  Task       20 on host h08 reporting.
  Task       21 on host h08 reporting.
  Task       22 on host h08 reporting.
  Task       23 on host h08 reporting.
  Task       24 on host h08 reporting.
  Task       25 on host h08 reporting.
  Task       26 on host h08 reporting.
  Task       27 on host h08 reporting.
  Task       28 on host h08 reporting.
  Task       29 on host h08 reporting.
  Task       30 on host h08 reporting.
  Task       31 on host h08 reporting.
  Task       32 on host h08 reporting.
  Task       33 on host h08 reporting.
  Task       34 on host h08 reporting.
  Task       35 on host h08 reporting.
  Task       36 on host h08 reporting.
  Task       37 on host h08 reporting.
  Task       38 on host h08 reporting.
  Task       39 on host h08 reporting.
  Task       40 on host h08 reporting.
  Task       41 on host h08 reporting.
  Task       42 on host h08 reporting.
  Task       43 on host h08 reporting.
  Task       44 on host h08 reporting.
  Task       45 on host h08 reporting.
  Task       46 on host h08 reporting.
  Task       47 on host h08 reporting.
  Task       48 on host h08 reporting.
  Task       49 on host h08 reporting.
  Task       50 on host h08 reporting.
  Task       51 on host h08 reporting.
  Task       52 on host h08 reporting.
  Task       53 on host h08 reporting.
  Task       54 on host h08 reporting.
  Task       55 on host h08 reporting.
  Task       56 on host h08 reporting.
  Task       57 on host h08 reporting.
  Task       58 on host h08 reporting.
  Task       59 on host h08 reporting.
  Task       60 on host h08 reporting.
  Task       61 on host h08 reporting.
  Task       62 on host h08 reporting.
  Task       63 on host h08 reporting.
  Task       64 on host h08 reporting.
  Task       65 on host h08 reporting.
  Task       66 on host h08 reporting.
  Task       67 on host h08 reporting.
  Task       68 on host h08 reporting.
  Task       69 on host h08 reporting.
  Task       70 on host h08 reporting.
  Task       71 on host h08 reporting.
  Task       72 on host h08 reporting.
  Task       73 on host h08 reporting.
  Task       74 on host h08 reporting.
  Task       75 on host h08 reporting.
  Task       76 on host h08 reporting.
  Task       77 on host h08 reporting.
  Task       78 on host h08 reporting.
  Task       79 on host h08 reporting.
  Task       80 on host h08 reporting.
  Task       81 on host h08 reporting.
  Task       82 on host h08 reporting.
  Task       83 on host h08 reporting.
  Task       84 on host h08 reporting.
  Task       85 on host h08 reporting.
  Task       86 on host h08 reporting.
  Task       87 on host h08 reporting.
  Task       88 on host h08 reporting.
  Task       89 on host h08 reporting.
  Task       90 on host h08 reporting.
  Task       91 on host h08 reporting.
  Task       92 on host h08 reporting.
  Task       93 on host h08 reporting.
  Task       94 on host h08 reporting.
  Task       95 on host h08 reporting.
  Task       96 on host h08 reporting.
  Task       97 on host h08 reporting.
  Task       98 on host h08 reporting.
  Task       99 on host h08 reporting.
  Task      100 on host h08 reporting.
  Task      101 on host h08 reporting.
  Task      102 on host h08 reporting.
  Task      103 on host h08 reporting.
  Task      104 on host h08 reporting.
  Task      105 on host h08 reporting.
  Task      106 on host h08 reporting.
  Task      107 on host h08 reporting.

  Memory overcommitment is allowed on your operating system.

  Obtaining array dimensions for all initial allocations:
  
  -----------------------------------------------------------------------
  Parsing control.in (first pass over file, find array dimensions only).
  The contents of control.in will be repeated verbatim below
  unless switched off by setting 'verbatim_writeout .false.' .
  in the first line of control.in .
  -----------------------------------------------------------------------
  
  # Physical  settings
  xc                 pbe
  spin               none
  relativistic       atomic_zora scalar
  ## SCF  settings
  sc_accuracy_rho     1E-6
  sc_iter_limit        100
  k_grid   8 8 8
  DFPT dielectric
  
  
  ################################################################################
  #
  #  FHI-aims code project
  #  VB, Fritz-Haber Institut, 2009
  #
  #  Suggested "light_dense" defaults for C atom (to be pasted into control.in file)
  #  These settings use a light basis set with a dense angular integration grid.
  #  Be sure to double-check any results obtained with these settings for post-processing,
  #  e.g., with the "tight" defaults and larger basis sets.
  #
  ################################################################################
  species        C
  #     global species definitions
  nucleus             6
  mass                12.0107
  #
  l_hartree            8
  #
  cut_pot             3.5  1.5  1.0
  basis_dep_cutoff    1e-4
  #
  radial_base         34 7.0
  radial_multiplier   2
  angular_grids specified
  #      division   0.2187   50
  division   0.4416  110
  division   0.6335  194
  division   0.7727  302
  division   0.8772  434
  #      division   0.9334  590
  #      division   0.9924  770
  #      division   1.0230  974
  #      division   1.5020 1202
  #     outer_grid  974
  outer_grid  434
  ################################################################################
  #
  #  Definition of "minimal" basis
  #
  ################################################################################
  #     valence basis states
  valence      2  s   2.
  valence      2  p   2.
  #     ion occupancy
  ion_occ      2  s   1.
  ion_occ      2  p   1.
  ################################################################################
  #
  #  Suggested additional basis functions. For production calculations,
  #  uncomment them one after another (the most important basis functions are
  #  listed first).
  #
  #  Constructed for dimers: 1.0 A, 1.25 A, 1.5 A, 2.0 A, 3.0 A
  #
  ################################################################################
  #  "First tier" - improvements: -1214.57 meV to -155.61 meV
  hydro 2 p 1.7
  hydro 3 d 6
  hydro 2 s 4.9
  #  "Second tier" - improvements: -67.75 meV to -5.23 meV
  #     hydro 4 f 9.8
  #     hydro 3 p 5.2
  #     hydro 3 s 4.3
  #     hydro 5 g 14.4
  #     hydro 3 d 6.2
  #  "Third tier" - improvements: -2.43 meV to -0.60 meV
  #     hydro 2 p 5.6
  #     hydro 2 s 1.4
  #     hydro 3 d 4.9
  #     hydro 4 f 11.2
  #  "Fourth tier" - improvements: -0.39 meV to -0.18 meV
  #     hydro 2 p 2.1
  #     hydro 5 g 16.4
  #     hydro 4 d 13.2
  #     hydro 3 s 13.6
  #     hydro 4 f 17.6
  #  Further basis functions - improvements: -0.08 meV and below
  #     hydro 3 s 2
  #     hydro 3 p 6
  #     hydro 4 d 20
  ################################################################################
  #
  #  FHI-aims code project
  #  VB, Fritz-Haber Institut, 2009
  #
  #  Suggested "light_dense" defaults for N atom (to be pasted into control.in file)
  #  These settings use a light basis set with a dense angular integration grid.
  #  Be sure to double-check any results obtained with these settings for post-processing,
  #  e.g., with the "tight" defaults and larger basis sets.
  #
  ################################################################################
  species        N
  #     global species definitions
  nucleus             7
  mass                14.0067
  #
  l_hartree            8
  #
  cut_pot             3.5  1.5  1.0
  basis_dep_cutoff    1e-4
  #
  radial_base         35 7.0
  radial_multiplier   2
  angular_grids       specified
  #      division   0.1841   50
  division   0.3514  110
  division   0.5126  194
  division   0.6292  302
  division   0.6939  434
  #      division   0.7396  590
  #      division   0.7632  770
  #      division   0.8122  974
  #      division   1.1604 1202
  #      outer_grid  974
  outer_grid  434
  ################################################################################
  #
  #  Definition of "minimal" basis
  #
  ################################################################################
  #     valence basis states
  valence      2  s   2.
  valence      2  p   3.
  #     ion occupancy
  ion_occ      2  s   1.
  ion_occ      2  p   2.
  ################################################################################
  #
  #  Suggested additional basis functions. For production calculations,
  #  uncomment them one after another (the most important basis functions are
  #  listed first).
  #
  #  Constructed for dimers: 1.0 A, 1.1 A, 1.5 A, 2.0 A, 3.0 A
  #
  ################################################################################
  #  "First tier" - improvements: -1193.42 meV to -220.60 meV
  hydro 2 p 1.8
  hydro 3 d 6.8
  hydro 3 s 5.8
  #  "Second tier" - improvements: -80.21 meV to -6.86 meV
  #     hydro 4 f 10.8
  #     hydro 3 p 5.8
  #     hydro 1 s 0.8
  #     hydro 5 g 16
  #     hydro 3 d 4.9
  #  "Third tier" - improvements: -4.29 meV to -0.53 meV
  #     hydro 3 s 16
  #     ionic 2 p auto
  #     hydro 3 d 6.6
  #     hydro 4 f 11.6
  #  "Fourth tier" - improvements: -0.75 meV to -0.25 meV
  #     hydro 2 p 4.5
  #     hydro 2 s 2.4
  #     hydro 5 g 14.4
  #     hydro 4 d 14.4
  #     hydro 4 f 16.8
  # Further basis functions - -0.21 meV and below
  #     hydro 3 p 14.8
  #     hydro 3 s 4.4
  #     hydro 3 d 19.6
  #     hydro 5 g 12.8
  ################################################################################
  #
  #  FHI-aims code project
  #  VB, Fritz-Haber Institut, 2009
  #
  #  Suggested "light_dense" defaults for H atom (to be pasted into control.in file)
  #  These settings use a light basis set with a dense angular integration grid.
  #  Be sure to double-check any results obtained with these settings for post-processing,
  #  e.g., with the "tight" defaults and larger basis sets.
  #
  ################################################################################
  species        H
  #     global species definitions
  nucleus             1
  mass                1.00794
  #
  l_hartree            8
  #
  cut_pot             3.5  1.5  1.0
  basis_dep_cutoff    1e-4
  #
  radial_base         24 7.0
  radial_multiplier   2
  angular_grids       specified
  #      division   0.1930   50
  division   0.3175  110
  division   0.4293  194
  division   0.5066  302
  division   0.5626  434
  #      division   0.5922  590
  #      division   0.6227  974
  #      division   0.6868 1202
  #      outer_grid  770
  outer_grid  434
  ################################################################################
  #
  #  Definition of "minimal" basis
  #
  ################################################################################
  #     valence basis states
  valence      1  s   1.
  #     ion occupancy
  ion_occ      1  s   0.5
  ################################################################################
  #
  #  Suggested additional basis functions. For production calculations,
  #  uncomment them one after another (the most important basis functions are
  #  listed first).
  #
  #  Basis constructed for dimers: 0.5 A, 0.7 A, 1.0 A, 1.5 A, 2.5 A
  #
  ################################################################################
  #  "First tier" - improvements: -1014.90 meV to -62.69 meV
  hydro 2 s 2.1
  hydro 2 p 3.5
  #  "Second tier" - improvements: -12.89 meV to -1.83 meV
  #     hydro 1 s 0.85
  #     hydro 2 p 3.7
  #     hydro 2 s 1.2
  #     hydro 3 d 7
  #  "Third tier" - improvements: -0.25 meV to -0.12 meV
  #     hydro 4 f 11.2
  #     hydro 3 p 4.8
  #     hydro 4 d 9
  #     hydro 3 s 3.2
  
  -----------------------------------------------------------------------
  Completed first pass over input file control.in .
  -----------------------------------------------------------------------
  
  
  -----------------------------------------------------------------------
  Parsing geometry.in (first pass over file, find array dimensions only).
  The contents of geometry.in will be repeated verbatim below
  unless switched off by setting 'verbatim_writeout .false.' .
  in the first line of geometry.in .
  -----------------------------------------------------------------------
  
  ## FHIaims input file generated by critic2.
  lattice_vector 8.1900000000       0.0000000000       0.0000000000
  lattice_vector 0.0000000000       12.5880000000      0.0000000000
  lattice_vector 0.0000000000       0.0000000000       6.7730000000
  atom_frac  0.2981800000       0.0588700000       0.3843500000       C
  atom_frac  0.2981800000       0.4411300000       0.8843500000       C
  atom_frac  0.7981800000       0.5588700000       0.1156500000       C
  atom_frac  0.7981800000       0.9411300000       0.6156500000       C
  atom_frac  0.7268600000       0.1865600000       0.9288500000       C
  atom_frac  0.7268600000       0.3134400000       0.4288500000       C
  atom_frac  0.2268600000       0.6865600000       0.5711500000       C
  atom_frac  0.2268600000       0.8134400000       0.0711500000       C
  atom_frac  0.3990600000       0.1171000000       0.5087100000       C
  atom_frac  0.3990600000       0.3829000000       0.0087100000       C
  atom_frac  0.8990600000       0.6171000000       0.9912900000       C
  atom_frac  0.8990600000       0.8829000000       0.4912900000       C
  atom_frac  0.6212000000       0.1096700000       0.0018000000       C
  atom_frac  0.6212000000       0.3903300000       0.5018000000       C
  atom_frac  0.1212000000       0.6096700000       0.4982000000       C
  atom_frac  0.1212000000       0.8903300000       0.9982000000       C
  atom_frac  0.3032400000       0.1982200000       0.5782400000       C
  atom_frac  0.3032400000       0.3017800000       0.0782400000       C
  atom_frac  0.8032400000       0.6982200000       0.9217600000       C
  atom_frac  0.8032400000       0.8017800000       0.4217600000       C
  atom_frac  0.7114700000       0.0533400000       0.1363800000       C
  atom_frac  0.7114700000       0.4466600000       0.6363800000       C
  atom_frac  0.2114700000       0.5533400000       0.3636200000       C
  atom_frac  0.2114700000       0.9466600000       0.8636200000       C
  atom_frac  0.0612500000       0.2183900000       0.5279800000       H
  atom_frac  0.0612500000       0.2816100000       0.0279800000       H
  atom_frac  0.5612500000       0.7183900000       0.9720200000       H
  atom_frac  0.5612500000       0.7816100000       0.4720200000       H
  atom_frac  0.9423400000       0.0861100000       0.2253100000       H
  atom_frac  0.9423400000       0.4138900000       0.7253100000       H
  atom_frac  0.4423400000       0.5861100000       0.2746900000       H
  atom_frac  0.4423400000       0.9138900000       0.7746900000       H
  atom_frac  0.3180800000       0.2565100000       0.6857100000       H
  atom_frac  0.3180800000       0.2434900000       0.1857100000       H
  atom_frac  0.8180800000       0.7565100000       0.8142900000       H
  atom_frac  0.8180800000       0.7434900000       0.3142900000       H
  atom_frac  0.6843100000       0.9948400000       0.2398300000       H
  atom_frac  0.6843100000       0.5051600000       0.7398300000       H
  atom_frac  0.1843100000       0.4948400000       0.2601700000       H
  atom_frac  0.1843100000       0.0051600000       0.7601700000       H
  atom_frac  0.5078100000       0.1004200000       0.5369000000       H
  atom_frac  0.5078100000       0.3995800000       0.0369000000       H
  atom_frac  0.0078100000       0.6004200000       0.9631000000       H
  atom_frac  0.0078100000       0.8995800000       0.4631000000       H
  atom_frac  0.5118700000       0.1021200000       0.9647100000       H
  atom_frac  0.5118700000       0.3978800000       0.4647100000       H
  atom_frac  0.0118700000       0.6021200000       0.5352900000       H
  atom_frac  0.0118700000       0.8978800000       0.0352900000       H
  atom_frac  0.3207800000       0.9977400000       0.3216400000       H
  atom_frac  0.3207800000       0.5022600000       0.8216400000       H
  atom_frac  0.8207800000       0.4977400000       0.1783600000       H
  atom_frac  0.8207800000       0.0022600000       0.6783600000       H
  atom_frac  0.7043100000       0.2396200000       0.8445300000       H
  atom_frac  0.7043100000       0.2603800000       0.3445300000       H
  atom_frac  0.2043100000       0.7396200000       0.6554700000       H
  atom_frac  0.2043100000       0.7603800000       0.1554700000       H
  atom_frac  0.1557400000       0.1843400000       0.4978400000       N
  atom_frac  0.1557400000       0.3156600000       0.9978400000       N
  atom_frac  0.6557400000       0.6843400000       0.0021600000       N
  atom_frac  0.6557400000       0.8156600000       0.5021600000       N
  atom_frac  0.8593800000       0.0981600000       0.1392600000       N
  atom_frac  0.8593800000       0.4018400000       0.6392600000       N
  atom_frac  0.3593800000       0.5981600000       0.3607400000       N
  atom_frac  0.3593800000       0.9018400000       0.8607400000       N
  atom_frac  0.1480600000       0.0986700000       0.3777400000       N
  atom_frac  0.1480600000       0.4013300000       0.8777400000       N
  atom_frac  0.6480600000       0.5986700000       0.1222600000       N
  atom_frac  0.6480600000       0.9013300000       0.6222600000       N
  atom_frac  0.8730200000       0.1810500000       0.0132900000       N
  atom_frac  0.8730200000       0.3189500000       0.5132900000       N
  atom_frac  0.3730200000       0.6810500000       0.4867100000       N
  atom_frac  0.3730200000       0.8189500000       0.9867100000       N
  
  -----------------------------------------------------------------------
  Completed first pass over input file geometry.in .
  -----------------------------------------------------------------------
  

  Basic array size parameters:
  | Number of species                 :        3
  | Number of atoms                   :       72
  | Number of lattice vectors         :        3
  | Max. basis fn. angular momentum   :        2
  | Max. atomic/ionic basis occupied n:        2
  | Max. number of basis fn. types    :        2
  | Max. radial fns per species/type  :        3
  | Max. logarithmic grid size        :     1290
  | Max. radial integration grid size :       71
  | Max. angular integration grid size:      434
  | Max. angular grid division number :        8
  | Radial grid for Hartree potential :     1290
  | Number of spin channels           :        1

------------------------------------------------------------
          Reading file control.in.
------------------------------------------------------------
  XC: Using PBE gradient-corrected functionals.
  Spin treatment: No spin polarisation.
  Scalar relativistic treatment of kinetic energy: on-site free-atom approximation to ZORA.
  Convergence accuracy of self-consistent charge density:  0.1000E-05
  Maximum number of s.-c. iterations  :   100
  Found k-point grid:         8         8         8
  DFPT calculation will begin after the DFT/HF calculation.
 
  Reading configuration options for species C                   .
  | Found nuclear charge :   6.0000
  | Found atomic mass :    12.0107000000000      amu
  | Found l_max for Hartree potential  :   8
  | Found cutoff potl. onset [A], width [A], scale factor :    3.50000    1.50000    1.00000
  | Threshold for basis-dependent cutoff potential is   0.100000E-03
  | Found data for basic radial integration grid :    34 points, outermost radius =    7.000 A
  | Found multiplier for basic radial grid :   2
  | Found angular grid specification: user-specified.
  | Specified grid contains     5 separate shells.
  | Check grid settings after all constraints further below.
  | Found free-atom valence shell :  2 s   2.000
  | Found free-atom valence shell :  2 p   2.000
  | No ionic wave fns used. Skipping ion_occ.
  | No ionic wave fns used. Skipping ion_occ.
  | Found hydrogenic basis function :  2 p   1.700
  | Found hydrogenic basis function :  3 d   6.000
  | Found hydrogenic basis function :  2 s   4.900
 | Encountered keyword species, ending the description of species C                   .
  Species C                   : Missing cutoff potential type.
  Defaulting to exp(1/x)/(1-x)^2 type cutoff potential.
  Species C : No 'logarithmic' tag. Using default grid for free atom:
  | Default logarithmic grid data [bohr] : 0.1000E-03 0.1000E+03 0.1012E+01
  Species C : On-site basis accuracy parameter (for Gram-Schmidt orthonormalisation) not specified.
  Using default value basis_acc =  0.1000000E-03.
  Species C                   : Using default innermost maximum threshold i_radial=  2 for radial functions.
  Species C                   : Default cutoff onset for free atom density etc. : 0.35000000E+01 AA.
  Species C                   : Basic radial grid will be enhanced according to radial_multiplier =   2, to contain    69 grid points.
 
  Reading configuration options for species N                   .
  | Found nuclear charge :   7.0000
  | Found atomic mass :    14.0067000000000      amu
  | Found l_max for Hartree potential  :   8
  | Found cutoff potl. onset [A], width [A], scale factor :    3.50000    1.50000    1.00000
  | Threshold for basis-dependent cutoff potential is   0.100000E-03
  | Found data for basic radial integration grid :    35 points, outermost radius =    7.000 A
  | Found multiplier for basic radial grid :   2
  | Found angular grid specification: user-specified.
  | Specified grid contains     5 separate shells.
  | Check grid settings after all constraints further below.
  | Found free-atom valence shell :  2 s   2.000
  | Found free-atom valence shell :  2 p   3.000
  | No ionic wave fns used. Skipping ion_occ.
  | No ionic wave fns used. Skipping ion_occ.
  | Found hydrogenic basis function :  2 p   1.800
  | Found hydrogenic basis function :  3 d   6.800
  | Found hydrogenic basis function :  3 s   5.800
 | Encountered keyword species, ending the description of species N                   .
  Species N                   : Missing cutoff potential type.
  Defaulting to exp(1/x)/(1-x)^2 type cutoff potential.
  Species N : No 'logarithmic' tag. Using default grid for free atom:
  | Default logarithmic grid data [bohr] : 0.1000E-03 0.1000E+03 0.1012E+01
  Species N : On-site basis accuracy parameter (for Gram-Schmidt orthonormalisation) not specified.
  Using default value basis_acc =  0.1000000E-03.
  Species N                   : Using default innermost maximum threshold i_radial=  2 for radial functions.
  Species N                   : Default cutoff onset for free atom density etc. : 0.35000000E+01 AA.
  Species N                   : Basic radial grid will be enhanced according to radial_multiplier =   2, to contain    71 grid points.
 
  Reading configuration options for species H                   .
  | Found nuclear charge :   1.0000
  | Found atomic mass :    1.00794000000000      amu
  | Found l_max for Hartree potential  :   8
  | Found cutoff potl. onset [A], width [A], scale factor :    3.50000    1.50000    1.00000
  | Threshold for basis-dependent cutoff potential is   0.100000E-03
  | Found data for basic radial integration grid :    24 points, outermost radius =    7.000 A
  | Found multiplier for basic radial grid :   2
  | Found angular grid specification: user-specified.
  | Specified grid contains     5 separate shells.
  | Check grid settings after all constraints further below.
  | Found free-atom valence shell :  1 s   1.000
  | No ionic wave fns used. Skipping ion_occ.
  | Found hydrogenic basis function :  2 s   2.100
  | Found hydrogenic basis function :  2 p   3.500
  Species H                   : Missing cutoff potential type.
  Defaulting to exp(1/x)/(1-x)^2 type cutoff potential.
  Species H : No 'logarithmic' tag. Using default grid for free atom:
  | Default logarithmic grid data [bohr] : 0.1000E-03 0.1000E+03 0.1012E+01
  Species H : On-site basis accuracy parameter (for Gram-Schmidt orthonormalisation) not specified.
  Using default value basis_acc =  0.1000000E-03.
  Species H                   : Using default innermost maximum threshold i_radial=  2 for radial functions.
  Species H                   : Default cutoff onset for free atom density etc. : 0.35000000E+01 AA.
  Species H                   : Basic radial grid will be enhanced according to radial_multiplier =   2, to contain    49 grid points.
 
  Finished reading input file 'control.in'.
 
------------------------------------------------------------


------------------------------------------------------------
          Reading geometry description geometry.in.
------------------------------------------------------------
  | The smallest distance between any two atoms is         0.89798608 AA.
  | The first atom of this pair is atom number                      5 .
  | The second atom of this pair is atom number                    53 .
  | Wigner-Seitz cell of the first atom image           0     0     0 .
  | (The Wigner-Seitz cell of the second atom is 0 0 0  by definition.)

  Symmetry information by spglib:
  | Precision set to  0.1E-04
  | Number of Operations  : 4
  | Space group           : 33
  | International         : Pna2_1
  | Schoenflies           : C2v^9
  Input structure read successfully.
  The structure contains       72 atoms,  and a total of        288.000 electrons.

  Input geometry:
  | Unit cell:
  |        8.19000000        0.00000000        0.00000000
  |        0.00000000       12.58800000        0.00000000
  |        0.00000000        0.00000000        6.77300000
  | Atomic structure:
  |       Atom                x [A]            y [A]            z [A]
  |    1: Species C             2.44209420        0.74105556        2.60320255
  |    2: Species C             2.44209420        5.55294444        5.98970255
  |    3: Species C             6.53709420        7.03505556        0.78329745
  |    4: Species C             6.53709420       11.84694444        4.16979745
  |    5: Species C             5.95298340        2.34841728        6.29110105
  |    6: Species C             5.95298340        3.94558272        2.90460105
  |    7: Species C             1.85798340        8.64241728        3.86839895
  |    8: Species C             1.85798340       10.23958272        0.48189895
  |    9: Species C             3.26830140        1.47405480        3.44549283
  |   10: Species C             3.26830140        4.81994520        0.05899283
  |   11: Species C             7.36330140        7.76805480        6.71400717
  |   12: Species C             7.36330140       11.11394520        3.32750717
  |   13: Species C             5.08762800        1.38052596        0.01219140
  |   14: Species C             5.08762800        4.91347404        3.39869140
  |   15: Species C             0.99262800        7.67452596        3.37430860
  |   16: Species C             0.99262800       11.20747404        6.76080860
  |   17: Species C             2.48353560        2.49519336        3.91641952
  |   18: Species C             2.48353560        3.79880664        0.52991952
  |   19: Species C             6.57853560        8.78919336        6.24308048
  |   20: Species C             6.57853560       10.09280664        2.85658048
  |   21: Species C             5.82693930        0.67144392        0.92370174
  |   22: Species C             5.82693930        5.62255608        4.31020174
  |   23: Species C             1.73193930        6.96544392        2.46279826
  |   24: Species C             1.73193930       11.91655608        5.84929826
  |   25: Species H             0.50163750        2.74909332        3.57600854
  |   26: Species H             0.50163750        3.54490668        0.18950854
  |   27: Species H             4.59663750        9.04309332        6.58349146
  |   28: Species H             4.59663750        9.83890668        3.19699146
  |   29: Species H             7.71776460        1.08395268        1.52602463
  |   30: Species H             7.71776460        5.21004732        4.91252463
  |   31: Species H             3.62276460        7.37795268        1.86047537
  |   32: Species H             3.62276460       11.50404732        5.24697537
  |   33: Species H             2.60507520        3.22894788        4.64431383
  |   34: Species H             2.60507520        3.06505212        1.25781383
  |   35: Species H             6.70007520        9.52294788        5.51518617
  |   36: Species H             6.70007520        9.35905212        2.12868617
  |   37: Species H             5.60449890       12.52304592        1.62436859
  |   38: Species H             5.60449890        6.35895408        5.01086859
  |   39: Species H             1.50949890        6.22904592        1.76213141
  |   40: Species H             1.50949890        0.06495408        5.14863141
  |   41: Species H             4.15896390        1.26408696        3.63642370
  |   42: Species H             4.15896390        5.02991304        0.24992370
  |   43: Species H             0.06396390        7.55808696        6.52307630
  |   44: Species H             0.06396390       11.32391304        3.13657630
  |   45: Species H             4.19221530        1.28548656        6.53398083
  |   46: Species H             4.19221530        5.00851344        3.14748083
  |   47: Species H             0.09721530        7.57948656        3.62551917
  |   48: Species H             0.09721530       11.30251344        0.23901917
  |   49: Species H             2.62718820       12.55955112        2.17846772
  |   50: Species H             2.62718820        6.32244888        5.56496772
  |   51: Species H             6.72218820        6.26555112        1.20803228
  |   52: Species H             6.72218820        0.02844888        4.59453228
  |   53: Species H             5.76829890        3.01633656        5.72000169
  |   54: Species H             5.76829890        3.27766344        2.33350169
  |   55: Species H             1.67329890        9.31033656        4.43949831
  |   56: Species H             1.67329890        9.57166344        1.05299831
  |   57: Species N             1.27551060        2.32047192        3.37187032
  |   58: Species N             1.27551060        3.97352808        6.75837032
  |   59: Species N             5.37051060        8.61447192        0.01462968
  |   60: Species N             5.37051060       10.26752808        3.40112968
  |   61: Species N             7.03832220        1.23563808        0.94320798
  |   62: Species N             7.03832220        5.05836192        4.32970798
  |   63: Species N             2.94332220        7.52963808        2.44329202
  |   64: Species N             2.94332220       11.35236192        5.82979202
  |   65: Species N             1.21261140        1.24205796        2.55843302
  |   66: Species N             1.21261140        5.05194204        5.94493302
  |   67: Species N             5.30761140        7.53605796        0.82806698
  |   68: Species N             5.30761140       11.34594204        4.21456698
  |   69: Species N             7.15003380        2.27905740        0.09001317
  |   70: Species N             7.15003380        4.01494260        3.47651317
  |   71: Species N             3.05503380        8.57305740        3.29648683
  |   72: Species N             3.05503380       10.30894260        6.68298683

  Lattice parameters for 3D lattice (in Angstroms) :     8.190000   12.588000    6.773000
  Angle(s) between unit vectors (in degrees)       :    90.000000   90.000000   90.000000


  Quantities derived from the lattice vectors (in Angstrom^-1):
  | Reciprocal lattice vector 1:  0.767178  0.000000  0.000000
  | Reciprocal lattice vector 2:  0.000000  0.499141  0.000000
  | Reciprocal lattice vector 3:  0.000000  0.000000  0.927681
  | Unit cell volume                               :   0.698267E+03  Angstrom^3

  Fractional coordinates:
                         L1                L2                L3
       atom_frac         0.29818000        0.05887000        0.38435000  C
       atom_frac         0.29818000        0.44113000        0.88435000  C
       atom_frac         0.79818000        0.55887000        0.11565000  C
       atom_frac         0.79818000        0.94113000        0.61565000  C
       atom_frac         0.72686000        0.18656000        0.92885000  C
       atom_frac         0.72686000        0.31344000        0.42885000  C
       atom_frac         0.22686000        0.68656000        0.57115000  C
       atom_frac         0.22686000        0.81344000        0.07115000  C
       atom_frac         0.39906000        0.11710000        0.50871000  C
       atom_frac         0.39906000        0.38290000        0.00871000  C
       atom_frac         0.89906000        0.61710000        0.99129000  C
       atom_frac         0.89906000        0.88290000        0.49129000  C
       atom_frac         0.62120000        0.10967000        0.00180000  C
       atom_frac         0.62120000        0.39033000        0.50180000  C
       atom_frac         0.12120000        0.60967000        0.49820000  C
       atom_frac         0.12120000        0.89033000        0.99820000  C
       atom_frac         0.30324000        0.19822000        0.57824000  C
       atom_frac         0.30324000        0.30178000        0.07824000  C
       atom_frac         0.80324000        0.69822000        0.92176000  C
       atom_frac         0.80324000        0.80178000        0.42176000  C
       atom_frac         0.71147000        0.05334000        0.13638000  C
       atom_frac         0.71147000        0.44666000        0.63638000  C
       atom_frac         0.21147000        0.55334000        0.36362000  C
       atom_frac         0.21147000        0.94666000        0.86362000  C
       atom_frac         0.06125000        0.21839000        0.52798000  H
       atom_frac         0.06125000        0.28161000        0.02798000  H
       atom_frac         0.56125000        0.71839000        0.97202000  H
       atom_frac         0.56125000        0.78161000        0.47202000  H
       atom_frac         0.94234000        0.08611000        0.22531000  H
       atom_frac         0.94234000        0.41389000        0.72531000  H
       atom_frac         0.44234000        0.58611000        0.27469000  H
       atom_frac         0.44234000        0.91389000        0.77469000  H
       atom_frac         0.31808000        0.25651000        0.68571000  H
       atom_frac         0.31808000        0.24349000        0.18571000  H
       atom_frac         0.81808000        0.75651000        0.81429000  H
       atom_frac         0.81808000        0.74349000        0.31429000  H
       atom_frac         0.68431000        0.99484000        0.23983000  H
       atom_frac         0.68431000        0.50516000        0.73983000  H
       atom_frac         0.18431000        0.49484000        0.26017000  H
       atom_frac         0.18431000        0.00516000        0.76017000  H
       atom_frac         0.50781000        0.10042000        0.53690000  H
       atom_frac         0.50781000        0.39958000        0.03690000  H
       atom_frac         0.00781000        0.60042000        0.96310000  H
       atom_frac         0.00781000        0.89958000        0.46310000  H
       atom_frac         0.51187000        0.10212000        0.96471000  H
       atom_frac         0.51187000        0.39788000        0.46471000  H
       atom_frac         0.01187000        0.60212000        0.53529000  H
       atom_frac         0.01187000        0.89788000        0.03529000  H
       atom_frac         0.32078000        0.99774000        0.32164000  H
       atom_frac         0.32078000        0.50226000        0.82164000  H
       atom_frac         0.82078000        0.49774000        0.17836000  H
       atom_frac         0.82078000        0.00226000        0.67836000  H
       atom_frac         0.70431000        0.23962000        0.84453000  H
       atom_frac         0.70431000        0.26038000        0.34453000  H
       atom_frac         0.20431000        0.73962000        0.65547000  H
       atom_frac         0.20431000        0.76038000        0.15547000  H
       atom_frac         0.15574000        0.18434000        0.49784000  N
       atom_frac         0.15574000        0.31566000        0.99784000  N
       atom_frac         0.65574000        0.68434000        0.00216000  N
       atom_frac         0.65574000        0.81566000        0.50216000  N
       atom_frac         0.85938000        0.09816000        0.13926000  N
       atom_frac         0.85938000        0.40184000        0.63926000  N
       atom_frac         0.35938000        0.59816000        0.36074000  N
       atom_frac         0.35938000        0.90184000        0.86074000  N
       atom_frac         0.14806000        0.09867000        0.37774000  N
       atom_frac         0.14806000        0.40133000        0.87774000  N
       atom_frac         0.64806000        0.59867000        0.12226000  N
       atom_frac         0.64806000        0.90133000        0.62226000  N
       atom_frac         0.87302000        0.18105000        0.01329000  N
       atom_frac         0.87302000        0.31895000        0.51329000  N
       atom_frac         0.37302000        0.68105000        0.48671000  N
       atom_frac         0.37302000        0.81895000        0.98671000  N

  Slab Identifier: This seems to be a bulk system.
 
  Finished reading input file 'geometry.in'.
 

 
  Consistency checks for stacksize environment parameter are next.
 
  | Maximum stacksize for task 0: unlimited
  | Maximum stacksize for task 1: unlimited
  | Maximum stacksize for task 2: unlimited
  | Maximum stacksize for task 3: unlimited
  | Maximum stacksize for task 4: unlimited
  | Maximum stacksize for task 5: unlimited
  | Maximum stacksize for task 6: unlimited
  | Maximum stacksize for task 7: unlimited
  | Maximum stacksize for task 8: unlimited
  | Maximum stacksize for task 9: unlimited
  | Maximum stacksize for task 10: unlimited
  | Maximum stacksize for task 11: unlimited
  | Maximum stacksize for task 12: unlimited
  | Maximum stacksize for task 13: unlimited
  | Maximum stacksize for task 14: unlimited
  | Maximum stacksize for task 15: unlimited
  | Maximum stacksize for task 16: unlimited
  | Maximum stacksize for task 17: unlimited
  | Maximum stacksize for task 18: unlimited
  | Maximum stacksize for task 19: unlimited
  | Maximum stacksize for task 20: unlimited
  | Maximum stacksize for task 21: unlimited
  | Maximum stacksize for task 22: unlimited
  | Maximum stacksize for task 23: unlimited
  | Maximum stacksize for task 24: unlimited
  | Maximum stacksize for task 25: unlimited
  | Maximum stacksize for task 26: unlimited
  | Maximum stacksize for task 27: unlimited
  | Maximum stacksize for task 28: unlimited
  | Maximum stacksize for task 29: unlimited
  | Maximum stacksize for task 30: unlimited
  | Maximum stacksize for task 31: unlimited
  | Maximum stacksize for task 32: unlimited
  | Maximum stacksize for task 33: unlimited
  | Maximum stacksize for task 34: unlimited
  | Maximum stacksize for task 35: unlimited
  | Maximum stacksize for task 36: unlimited
  | Maximum stacksize for task 37: unlimited
  | Maximum stacksize for task 38: unlimited
  | Maximum stacksize for task 39: unlimited
  | Maximum stacksize for task 40: unlimited
  | Maximum stacksize for task 41: unlimited
  | Maximum stacksize for task 42: unlimited
  | Maximum stacksize for task 43: unlimited
  | Maximum stacksize for task 44: unlimited
  | Maximum stacksize for task 45: unlimited
  | Maximum stacksize for task 46: unlimited
  | Maximum stacksize for task 47: unlimited
  | Maximum stacksize for task 48: unlimited
  | Maximum stacksize for task 49: unlimited
  | Maximum stacksize for task 50: unlimited
  | Maximum stacksize for task 51: unlimited
  | Maximum stacksize for task 52: unlimited
  | Maximum stacksize for task 53: unlimited
  | Maximum stacksize for task 54: unlimited
  | Maximum stacksize for task 55: unlimited
  | Maximum stacksize for task 56: unlimited
  | Maximum stacksize for task 57: unlimited
  | Maximum stacksize for task 58: unlimited
  | Maximum stacksize for task 59: unlimited
  | Maximum stacksize for task 60: unlimited
  | Maximum stacksize for task 61: unlimited
  | Maximum stacksize for task 62: unlimited
  | Maximum stacksize for task 63: unlimited
  | Maximum stacksize for task 64: unlimited
  | Maximum stacksize for task 65: unlimited
  | Maximum stacksize for task 66: unlimited
  | Maximum stacksize for task 67: unlimited
  | Maximum stacksize for task 68: unlimited
  | Maximum stacksize for task 69: unlimited
  | Maximum stacksize for task 70: unlimited
  | Maximum stacksize for task 71: unlimited
  | Maximum stacksize for task 72: unlimited
  | Maximum stacksize for task 73: unlimited
  | Maximum stacksize for task 74: unlimited
  | Maximum stacksize for task 75: unlimited
  | Maximum stacksize for task 76: unlimited
  | Maximum stacksize for task 77: unlimited
  | Maximum stacksize for task 78: unlimited
  | Maximum stacksize for task 79: unlimited
  | Maximum stacksize for task 80: unlimited
  | Maximum stacksize for task 81: unlimited
  | Maximum stacksize for task 82: unlimited
  | Maximum stacksize for task 83: unlimited
  | Maximum stacksize for task 84: unlimited
  | Maximum stacksize for task 85: unlimited
  | Maximum stacksize for task 86: unlimited
  | Maximum stacksize for task 87: unlimited
  | Maximum stacksize for task 88: unlimited
  | Maximum stacksize for task 89: unlimited
  | Maximum stacksize for task 90: unlimited
  | Maximum stacksize for task 91: unlimited
  | Maximum stacksize for task 92: unlimited
  | Maximum stacksize for task 93: unlimited
  | Maximum stacksize for task 94: unlimited
  | Maximum stacksize for task 95: unlimited
  | Maximum stacksize for task 96: unlimited
  | Maximum stacksize for task 97: unlimited
  | Maximum stacksize for task 98: unlimited
  | Maximum stacksize for task 99: unlimited
  | Maximum stacksize for task 100: unlimited
  | Maximum stacksize for task 101: unlimited
  | Maximum stacksize for task 102: unlimited
  | Maximum stacksize for task 103: unlimited
  | Maximum stacksize for task 104: unlimited
  | Maximum stacksize for task 105: unlimited
  | Maximum stacksize for task 106: unlimited
  | Maximum stacksize for task 107: unlimited
  | Current stacksize for task 0: unlimited
  | Current stacksize for task 1: unlimited
  | Current stacksize for task 2: unlimited
  | Current stacksize for task 3: unlimited
  | Current stacksize for task 4: unlimited
  | Current stacksize for task 5: unlimited
  | Current stacksize for task 6: unlimited
  | Current stacksize for task 7: unlimited
  | Current stacksize for task 8: unlimited
  | Current stacksize for task 9: unlimited
  | Current stacksize for task 10: unlimited
  | Current stacksize for task 11: unlimited
  | Current stacksize for task 12: unlimited
  | Current stacksize for task 13: unlimited
  | Current stacksize for task 14: unlimited
  | Current stacksize for task 15: unlimited
  | Current stacksize for task 16: unlimited
  | Current stacksize for task 17: unlimited
  | Current stacksize for task 18: unlimited
  | Current stacksize for task 19: unlimited
  | Current stacksize for task 20: unlimited
  | Current stacksize for task 21: unlimited
  | Current stacksize for task 22: unlimited
  | Current stacksize for task 23: unlimited
  | Current stacksize for task 24: unlimited
  | Current stacksize for task 25: unlimited
  | Current stacksize for task 26: unlimited
  | Current stacksize for task 27: unlimited
  | Current stacksize for task 28: unlimited
  | Current stacksize for task 29: unlimited
  | Current stacksize for task 30: unlimited
  | Current stacksize for task 31: unlimited
  | Current stacksize for task 32: unlimited
  | Current stacksize for task 33: unlimited
  | Current stacksize for task 34: unlimited
  | Current stacksize for task 35: unlimited
  | Current stacksize for task 36: unlimited
  | Current stacksize for task 37: unlimited
  | Current stacksize for task 38: unlimited
  | Current stacksize for task 39: unlimited
  | Current stacksize for task 40: unlimited
  | Current stacksize for task 41: unlimited
  | Current stacksize for task 42: unlimited
  | Current stacksize for task 43: unlimited
  | Current stacksize for task 44: unlimited
  | Current stacksize for task 45: unlimited
  | Current stacksize for task 46: unlimited
  | Current stacksize for task 47: unlimited
  | Current stacksize for task 48: unlimited
  | Current stacksize for task 49: unlimited
  | Current stacksize for task 50: unlimited
  | Current stacksize for task 51: unlimited
  | Current stacksize for task 52: unlimited
  | Current stacksize for task 53: unlimited
  | Current stacksize for task 54: unlimited
  | Current stacksize for task 55: unlimited
  | Current stacksize for task 56: unlimited
  | Current stacksize for task 57: unlimited
  | Current stacksize for task 58: unlimited
  | Current stacksize for task 59: unlimited
  | Current stacksize for task 60: unlimited
  | Current stacksize for task 61: unlimited
  | Current stacksize for task 62: unlimited
  | Current stacksize for task 63: unlimited
  | Current stacksize for task 64: unlimited
  | Current stacksize for task 65: unlimited
  | Current stacksize for task 66: unlimited
  | Current stacksize for task 67: unlimited
  | Current stacksize for task 68: unlimited
  | Current stacksize for task 69: unlimited
  | Current stacksize for task 70: unlimited
  | Current stacksize for task 71: unlimited
  | Current stacksize for task 72: unlimited
  | Current stacksize for task 73: unlimited
  | Current stacksize for task 74: unlimited
  | Current stacksize for task 75: unlimited
  | Current stacksize for task 76: unlimited
  | Current stacksize for task 77: unlimited
  | Current stacksize for task 78: unlimited
  | Current stacksize for task 79: unlimited
  | Current stacksize for task 80: unlimited
  | Current stacksize for task 81: unlimited
  | Current stacksize for task 82: unlimited
  | Current stacksize for task 83: unlimited
  | Current stacksize for task 84: unlimited
  | Current stacksize for task 85: unlimited
  | Current stacksize for task 86: unlimited
  | Current stacksize for task 87: unlimited
  | Current stacksize for task 88: unlimited
  | Current stacksize for task 89: unlimited
  | Current stacksize for task 90: unlimited
  | Current stacksize for task 91: unlimited
  | Current stacksize for task 92: unlimited
  | Current stacksize for task 93: unlimited
  | Current stacksize for task 94: unlimited
  | Current stacksize for task 95: unlimited
  | Current stacksize for task 96: unlimited
  | Current stacksize for task 97: unlimited
  | Current stacksize for task 98: unlimited
  | Current stacksize for task 99: unlimited
  | Current stacksize for task 100: unlimited
  | Current stacksize for task 101: unlimited
  | Current stacksize for task 102: unlimited
  | Current stacksize for task 103: unlimited
  | Current stacksize for task 104: unlimited
  | Current stacksize for task 105: unlimited
  | Current stacksize for task 106: unlimited
  | Current stacksize for task 107: unlimited
 
  Consistency checks for the contents of control.in are next.
 
  MPI_IN_PLACE appears to work with this MPI implementation.
  | Keeping use_mpi_in_place .true. (see manual).
  Target number of points in a grid batch is not set. Defaulting to  100
  Method for grid partitioning is not set. Defaulting to parallel hash+maxmin partitioning.
  Batch size limit is not set. Defaulting to    200
  By default, will store active basis functions for each batch.
  If in need of memory, prune_basis_once .false. can be used to disable this option.
  communication_type for Hartree potential was not specified.
  Defaulting to calc_hartree .
  Defaulting to Pulay charge density mixer.
  Pulay mixer: Number of relevant iterations not set.
  Defaulting to    8 iterations.
  Pulay mixer: Number of initial linear mixing iterations not set.
  Defaulting to    0 iterations.
  Work space size for distributed Hartree potential not set.
  Defaulting to   0.200000E+03 MB.
  Mixing parameter for charge density mixing has not been set.
  Using default: charge_mix_param =     0.0500.
  The mixing parameter will be adjusted in iteration number     2 of the first full s.c.f. cycle only.
  Algorithm-dependent basis array size parameters:
  | n_max_pulay                         :        8
  Presetting      1001 iterations before the initial mixing cycle
  is restarted anyway using the sc_init_iter criterion / keyword.
  Presetting a factor      1.000 between actual scf density residual
  and density convergence criterion sc_accuracy_rho below which sc_init_iter
  takes no effect.
  Calculation of forces was not defined in control.in. No forces will be calculated.
  Geometry relaxation not requested: no relaxation will be performed.
  No accuracy limit for integral partition fn. given. Defaulting to  0.1000E-14.
  No threshold value for u(r) in integrations given. Defaulting to  0.1000E-05.
  No occupation type (smearing scheme) given. Defaulting to Gaussian broadening, width =  0.1000E-01 eV.
  The width will be adjusted in iteration number     2 of the first full s.c.f. cycle only.
  S.C.F. convergence parameters will be adjusted in iteration number     2 of the first full s.c.f. cycle only.
  No accuracy for occupation numbers given. Defaulting to  0.1000E-12.
  No threshold value for occupation numbers given. Defaulting to  0.0000E+00.
  No accuracy for fermi level given. Defaulting to  0.1000E-19.
  Maximum # of iterations to find E_F not set. Defaulting to  200.
  Preferred method for the eigenvalue solver ('KS_method') not specified in 'control.in'.
  Defaulting to serial version, LAPACK (via ELSI), since more k-points than CPUs available.
  Will not use alltoall communication since running on < 1024 CPUs.
  Threshold for basis singularities not set.
  Default threshold for basis singularities:  0.1000E-04
  partition_type (choice of integration weights) for integrals was not specified.
  | Using a version of the partition function of Stratmann and coworkers ('stratmann_sparse').
  | At each grid point, the set of atoms used to build the partition table is smoothly restricted to
  | only those atoms whose free-atom density would be non-zero at that grid point.
  Partitioning for Hartree potential was not defined. Using partition_type for integrals.
  | Adjusted default value of keyword multip_moments_threshold to:       0.10000000E-11
  | This value may affect high angular momentum components of the Hartree potential in periodic systems.
  No q(lm)/r^(l+1) cutoff set for long-range Hartree potential.
  | Using default value of  0.100000E-09 .
  | Verify using the multipole_threshold keyword.
  Defaulting to new monopole extrapolation.
  Density update method: automatic selection selected.
  Using density matrix based charge density update.
  Using density matrix based charge density update.
  Using packed matrix style: index .
  Defaulting to use time-reversal symmetry for k-point grid.
  Charge integration errors on the 3D integration grid will be compensated
  by explicit normalization and distribution of residual charges.
  Use the "compensate_multipole_errors" flag to change this behaviour.
  Set 'collect_eigenvectors' to be '.true.' for all serial calculations. This is mandatory.
  Set 'collect_eigenvectors' to be '.true.' for KS_method lapack_fast and serial.
  Found potential conflicts with setting 'use_local_index' for this calculation. Will not set it.
 
  Consistency checks for the contents of geometry.in are next.
 

  Range separation radius for Ewald summation (hartree_convergence_parameter):      2.93889007 bohr.
  Number of empty states per atom not set in control.in .
  | Since you are using a method that relies on the unoccupied spectrum
  | (MP2,GW,RPA et al.), will use the full Hamiltonian size (see below)
  | as the max. possible number of states (occupied plus empty).

  Structure-dependent array size parameters: 
  | Maximum number of distinct radial functions  :       15
  | Maximum number of basis functions            :      720
  | Number of Kohn-Sham states (occupied + empty):      720
------------------------------------------------------------
  After read_input_data [GB]:   1044.58

  Performing system and environment tests:
  | Environment variable OMP_NUM_THREADS correctly set to 1.
  | Checking for ScaLAPACK...
  | Testing pdtran()...
  | All pdtran() tests passed.
  After prepare_system [GB]:   1044.47

------------------------------------------------------------
          Preparing all fixed parts of the calculation.
------------------------------------------------------------
  Determining machine precision:
    2.225073858507201E-308
  Setting up grids for atomic and cluster calculations.

  Creating wave function, potential, and density for free atoms.
  Runtime choices for atomic solver:
  | atomic solver xc        : PBE
  | compute density gradient: 1
  | compute kinetic density : F

  Species: C

  List of occupied orbitals and eigenvalues:
    n    l              occ      energy [Ha]    energy [eV]
    1    0           2.0000       -10.046810      -273.3876
    2    0           2.0000        -0.503128       -13.6908
    2    1           2.0000        -0.191849        -5.2205


  Species: N

  List of occupied orbitals and eigenvalues:
    n    l              occ      energy [Ha]    energy [eV]
    1    0           2.0000       -14.143973      -384.8771
    2    0           2.0000        -0.682008       -18.5584
    2    1           3.0000        -0.259605        -7.0642


  Species: H

  List of occupied orbitals and eigenvalues:
    n    l              occ      energy [Ha]    energy [eV]
    1    0           1.0000        -0.237593        -6.4652


  Adding cutoff potential to free-atom effective potential.
  Creating fixed part of basis set: Ionic, confined, hydrogenic.
 
  C                    hydrogenic:
 
  List of hydrogenic basis orbitals: 
    n    l      effective z      eigenvalue [eV]  inner max. [A]     outer max. [A]     outer radius [A]   
    2    1         1.700000        -9.7616           1.230570           1.230570           4.607917
    3    2         6.000000       -54.4224           0.792453           0.792453           3.883070
    2    0         4.900000       -81.6679           0.082559           0.562749           3.078220
 
 
  N                    hydrogenic:
 
  List of hydrogenic basis orbitals: 
    n    l      effective z      eigenvalue [eV]  inner max. [A]     outer max. [A]     outer radius [A]   
    2    1         1.800000       -10.9749           1.177451           1.177451           4.573712
    3    2         6.800000       -69.9026           0.704619           0.704619           3.538137
    3    0         5.800000       -50.8545           0.067388           1.191934           4.250239
 
 
  H                    hydrogenic:
 
  List of hydrogenic basis orbitals: 
    n    l      effective z      eigenvalue [eV]  inner max. [A]     outer max. [A]     outer radius [A]   
    2    0         2.100000       -14.9728           0.193243           1.317208           4.583499
    2    1         3.500000       -41.6669           0.602369           0.602369           3.723403
 
  Creating atomic-like basis functions for current effective potential.

  Species C                   :

  List of atomic basis orbitals and eigenvalues:
    n    l      energy [Ha]    energy [eV]    outer radius [A]
    1    0       -10.046810      -273.3876       1.934409
    2    0        -0.503128       -13.6908       4.496620
    2    1        -0.191849        -5.2205       4.551928


  Species N                   :

  List of atomic basis orbitals and eigenvalues:
    n    l      energy [Ha]    energy [eV]    outer radius [A]
    1    0       -14.143973      -384.8771       1.637919
    2    0        -0.682008       -18.5584       4.463241
    2    1        -0.259605        -7.0642       4.518138


  Species H                   :

  List of atomic basis orbitals and eigenvalues:
    n    l      energy [Ha]    energy [eV]    outer radius [A]
    1    0        -0.237593        -6.4652       4.527807

  Assembling full basis from fixed parts.
  | Species C :   atomic orbital   1 s accepted.
  | Species C :    hydro orbital   2 s accepted.
  | Species C :   atomic orbital   2 s accepted.
  | Species C :   atomic orbital   2 p accepted.
  | Species C :    hydro orbital   2 p accepted.
  | Species C :    hydro orbital   3 d accepted.
  | Species N :   atomic orbital   1 s accepted.
  | Species N :    hydro orbital   3 s accepted.
  | Species N :   atomic orbital   2 s accepted.
  | Species N :   atomic orbital   2 p accepted.
  | Species N :    hydro orbital   2 p accepted.
  | Species N :    hydro orbital   3 d accepted.
  | Species H :   atomic orbital   1 s accepted.
  | Species H :    hydro orbital   2 s accepted.
  | Species H :    hydro orbital   2 p accepted.
 
  Basis size parameters after reduction:
  | Total number of radial functions:       15
  | Total number of basis functions :      720
 
  Per-task memory consumption for arrays in subroutine allocate_ext:
  |           4.973844MB.
  Testing on-site integration grid accuracy.
  |  Species  Function  <phi|h_atom|phi> (log., in eV)  <phi|h_atom|phi> (rad., in eV)
           1        1               -273.3876219248               -273.3876203721
           1        2                -10.7204647119                -10.7204634639
           1        3                 17.5782951162                 17.5784424427
           1        4                 -5.2222267983                 -5.2220410825
           1        5                  8.6866956284                  8.6893633739
           1        6                 27.4984676161                 27.4984652796
           2        7               -384.8770852097               -384.8770824231
           2        8                 12.5754985572                 12.5755098789
           2        9                -15.7673946340                -15.7673936923
           2       10                 -7.0647024644                 -7.0646511419
           2       11                  8.8117910312                  8.8136468194
           2       12                 35.9641313274                 35.9641312889
           3       13                 -6.4664147733                 -6.4660167732
           3       14                 13.7099062243                 13.7118588299
           3       15                 25.2661739479                 25.2661606705

  Preparing densities etc. for the partition functions (integrals / Hartree potential).

  Preparations completed.
  max(cpu_time)          :      0.184 s.
  Wall clock time (cpu1) :      0.178 s.
------------------------------------------------------------
  After prepare_scf [GB]:   1040.31

  Initializing index lists of integration centers etc. from given atomic structure:
  Mapping all atomic coordinates to central unit cell.

  Initializing the k-points
  Using symmetry for reducing the k-points
  | k-points reduced from:      512 to      260
  | Number of k-points                             :       260
  | Consuming       2080 KiB for k_phase_exx.
  The eigenvectors in the calculations are COMPLEX.
  | K-points in task   0:         2
  | K-points in task   1:         3
  | K-points in task   2:         3
  | K-points in task   3:         3
  | K-points in task   4:         3
  | K-points in task   5:         3
  | K-points in task   6:         3
  | K-points in task   7:         3
  | K-points in task   8:         3
  | K-points in task   9:         3
  | K-points in task  10:         3
  | K-points in task  11:         3
  | K-points in task  12:         3
  | K-points in task  13:         3
  | K-points in task  14:         3
  | K-points in task  15:         3
  | K-points in task  16:         3
  | K-points in task  17:         3
  | K-points in task  18:         3
  | K-points in task  19:         3
  | K-points in task  20:         3
  | K-points in task  21:         3
  | K-points in task  22:         3
  | K-points in task  23:         3
  | K-points in task  24:         3
  | K-points in task  25:         3
  | K-points in task  26:         3
  | K-points in task  27:         3
  | K-points in task  28:         3
  | K-points in task  29:         3
  | K-points in task  30:         3
  | K-points in task  31:         3
  | K-points in task  32:         3
  | K-points in task  33:         3
  | K-points in task  34:         3
  | K-points in task  35:         3
  | K-points in task  36:         3
  | K-points in task  37:         3
  | K-points in task  38:         3
  | K-points in task  39:         3
  | K-points in task  40:         3
  | K-points in task  41:         3
  | K-points in task  42:         3
  | K-points in task  43:         3
  | K-points in task  44:         3
  | K-points in task  45:         2
  | K-points in task  46:         2
  | K-points in task  47:         2
  | K-points in task  48:         2
  | K-points in task  49:         2
  | K-points in task  50:         2
  | K-points in task  51:         2
  | K-points in task  52:         2
  | K-points in task  53:         2
  | K-points in task  54:         2
  | K-points in task  55:         2
  | K-points in task  56:         2
  | K-points in task  57:         2
  | K-points in task  58:         2
  | K-points in task  59:         2
  | K-points in task  60:         2
  | K-points in task  61:         2
  | K-points in task  62:         2
  | K-points in task  63:         2
  | K-points in task  64:         2
  | K-points in task  65:         2
  | K-points in task  66:         2
  | K-points in task  67:         2
  | K-points in task  68:         2
  | K-points in task  69:         2
  | K-points in task  70:         2
  | K-points in task  71:         2
  | K-points in task  72:         2
  | K-points in task  73:         2
  | K-points in task  74:         2
  | K-points in task  75:         2
  | K-points in task  76:         2
  | K-points in task  77:         2
  | K-points in task  78:         2
  | K-points in task  79:         2
  | K-points in task  80:         2
  | K-points in task  81:         2
  | K-points in task  82:         2
  | K-points in task  83:         2
  | K-points in task  84:         2
  | K-points in task  85:         2
  | K-points in task  86:         2
  | K-points in task  87:         2
  | K-points in task  88:         2
  | K-points in task  89:         2
  | K-points in task  90:         2
  | K-points in task  91:         2
  | K-points in task  92:         2
  | K-points in task  93:         2
  | K-points in task  94:         2
  | K-points in task  95:         2
  | K-points in task  96:         2
  | K-points in task  97:         2
  | K-points in task  98:         2
  | K-points in task  99:         2
  | K-points in task 100:         2
  | K-points in task 101:         2
  | K-points in task 102:         2
  | K-points in task 103:         2
  | K-points in task 104:         2
  | K-points in task 105:         2
  | K-points in task 106:         2
  | K-points in task 107:         2
  | Number of basis functions in the Hamiltonian integrals :      4964
  | Number of basis functions in a single unit cell        :       720
  | Number of centers in hartree potential         :      2431
  | Number of centers in hartree multipole         :      1780
  | Number of centers in electron density summation:      1362
  | Number of centers in basis integrals           :      1446
  | Number of centers in integrals                 :       627
  | Number of centers in hamiltonian               :      1369
  | Consuming        195 KiB for k_phase.
  | Number of super-cells (origin) [n_cells]                     :         245
  | Number of super-cells (after PM_index) [n_cells]             :          48
  | Number of super-cells in hamiltonian [n_cells_in_hamiltonian]:          48
  | Size of matrix packed + index [n_hamiltonian_matrix_size] :      939737
  | Size of matrix packed + index (no_symmetry):     1876721
  After initialize_bc_dependent_lists [GB]:   1038.66

------------------------------------------------------------
          Begin self-consistency loop: Initialization.

          Date     :  20240930, Time     :  163340.035
------------------------------------------------------------
  Available memory per node after initialize_hartree_non_periodic_ewald [GB]:   1038.66
  | Estimated reciprocal-space cutoff momentum G_max:         3.58098207 bohr^-1 .
  | Reciprocal lattice points for long-range Hartree potential:    3676
  Available memory per node after initialize_recip_hartree_potential [GB]:   1038.66
  Available memory per node after initialize_scalapack [GB]:   1038.66
  Available memory per node after aims_elsi_init_scf [GB]:   1038.66
  Available memory per node after initialize_fixed_grids [GB]:   1038.66
  Partitioning the integration grid into batches with parallel hashing+maxmin method.
  | Number of batches:    17132
  | Maximal batch size:     129
  | Minimal batch size:      50
  | Average batch size:      74.874
  | Standard deviation of batch sizes:      15.071

  Integration load balanced across   108 MPI tasks.
  Work distribution over tasks is as follows:
  Task     0 has      11882 integration points.
  Task     1 has      11901 integration points.
  Task     2 has      11889 integration points.
  Task     3 has      11842 integration points.
  Task     4 has      11887 integration points.
  Task     5 has      11879 integration points.
  Task     6 has      11843 integration points.
  Task     7 has      11875 integration points.
  Task     8 has      11886 integration points.
  Task     9 has      11882 integration points.
  Task    10 has      11890 integration points.
  Task    11 has      11896 integration points.
  Task    12 has      11844 integration points.
  Task    13 has      11837 integration points.
  Task    14 has      11881 integration points.
  Task    15 has      11897 integration points.
  Task    16 has      11878 integration points.
  Task    17 has      11893 integration points.
  Task    18 has      11878 integration points.
  Task    19 has      11889 integration points.
  Task    20 has      11839 integration points.
  Task    21 has      11892 integration points.
  Task    22 has      11854 integration points.
  Task    23 has      11901 integration points.
  Task    24 has      11879 integration points.
  Task    25 has      11898 integration points.
  Task    26 has      11888 integration points.
  Task    27 has      11896 integration points.
  Task    28 has      11855 integration points.
  Task    29 has      11850 integration points.
  Task    30 has      11901 integration points.
  Task    31 has      11887 integration points.
  Task    32 has      11842 integration points.
  Task    33 has      11881 integration points.
  Task    34 has      11882 integration points.
  Task    35 has      11900 integration points.
  Task    36 has      11900 integration points.
  Task    37 has      11902 integration points.
  Task    38 has      11879 integration points.
  Task    39 has      11904 integration points.
  Task    40 has      11884 integration points.
  Task    41 has      11899 integration points.
  Task    42 has      11838 integration points.
  Task    43 has      11899 integration points.
  Task    44 has      11889 integration points.
  Task    45 has      11886 integration points.
  Task    46 has      11836 integration points.
  Task    47 has      11892 integration points.
  Task    48 has      11855 integration points.
  Task    49 has      11890 integration points.
  Task    50 has      11838 integration points.
  Task    51 has      11902 integration points.
  Task    52 has      11894 integration points.
  Task    53 has      11840 integration points.
  Task    54 has      11874 integration points.
  Task    55 has      11837 integration points.
  Task    56 has      11895 integration points.
  Task    57 has      11885 integration points.
  Task    58 has      11836 integration points.
  Task    59 has      11884 integration points.
  Task    60 has      11880 integration points.
  Task    61 has      11902 integration points.
  Task    62 has      11884 integration points.
  Task    63 has      11899 integration points.
  Task    64 has      11897 integration points.
  Task    65 has      11883 integration points.
  Task    66 has      11852 integration points.
  Task    67 has      11864 integration points.
  Task    68 has      11893 integration points.
  Task    69 has      11898 integration points.
  Task    70 has      11881 integration points.
  Task    71 has      11839 integration points.
  Task    72 has      11876 integration points.
  Task    73 has      11850 integration points.
  Task    74 has      11886 integration points.
  Task    75 has      11879 integration points.
  Task    76 has      11881 integration points.
  Task    77 has      11844 integration points.
  Task    78 has      11889 integration points.
  Task    79 has      11897 integration points.
  Task    80 has      11885 integration points.
  Task    81 has      11894 integration points.
  Task    82 has      11896 integration points.
  Task    83 has      11838 integration points.
  Task    84 has      11883 integration points.
  Task    85 has      11837 integration points.
  Task    86 has      11895 integration points.
  Task    87 has      11843 integration points.
  Task    88 has      11893 integration points.
  Task    89 has      11875 integration points.
  Task    90 has      11897 integration points.
  Task    91 has      11884 integration points.
  Task    92 has      11896 integration points.
  Task    93 has      11838 integration points.
  Task    94 has      11836 integration points.
  Task    95 has      11839 integration points.
  Task    96 has      11883 integration points.
  Task    97 has      11890 integration points.
  Task    98 has      11891 integration points.
  Task    99 has      11889 integration points.
  Task   100 has      11887 integration points.
  Task   101 has      11899 integration points.
  Task   102 has      11895 integration points.
  Task   103 has      11890 integration points.
  Task   104 has      11886 integration points.
  Task   105 has      11867 integration points.
  Task   106 has      11847 integration points.
  Task   107 has      11877 integration points.
  Available memory per node after partition_grid [GB]:   1038.66
  Initializing partition tables, free-atom densities, potentials, etc. across the integration grid (initialize_grid_storage).
  | initialize_grid_storage: Actual outermost partition radius vs. multipole_radius_free
  | (-- VB: in principle, multipole_radius_free should be larger, hence this output)
  | Species        1: Confinement radius =              4.999999999999999 AA, multipole_radius_free =              5.019602836301480 AA.
  | Species        1: outer_partition_radius set to              5.019602836301480 AA .
  | Species        2: Confinement radius =              4.999999999999999 AA, multipole_radius_free =              5.043624274424571 AA.
  | Species        2: outer_partition_radius set to              5.043624274424571 AA .
  | Species        3: Confinement radius =              4.999999999999999 AA, multipole_radius_free =              5.054417573612229 AA.
  | Species        3: outer_partition_radius set to              5.054417573612229 AA .
  | The sparse table of interatomic distances needs      15972.77 kbyte instead of     16727.33 kbyte of memory.
  | Net number of integration points:  1282736
  | of which are non-zero points    :   906160
  | Numerical average free-atom electrostatic potential    :     -8.10761824 eV
  Available memory per node after initialize_grid_storage_p1 [GB]:   1038.41
  Renormalizing the initial density to the exact electron count on the 3D integration grid.
  | Initial density: Formal number of electrons (from input files) :     288.0000000000
  | Integrated number of electrons on 3D grid     :     287.9993150227
  | Charge integration error                      :      -0.0006849773
  | Normalization factor for density and gradient :       1.0000023784
  Renormalizing the free-atom superposition density to the exact electron count on the 3D integration grid.
  | Formal number of electrons (from input files) :     288.0000000000
  | Integrated number of electrons on 3D grid     :     287.9993150227
  | Charge integration error                      :      -0.0006849773
  | Normalization factor for density and gradient :       1.0000023784
  Obtaining max. number of non-zero basis functions in each batch (get_n_compute_maxes).
  | Maximal number of non-zero basis functions:      435 in task     0
  | Maximal number of non-zero basis functions:      445 in task     1
  | Maximal number of non-zero basis functions:      445 in task     2
  | Maximal number of non-zero basis functions:      452 in task     3
  | Maximal number of non-zero basis functions:      441 in task     4
  | Maximal number of non-zero basis functions:      436 in task     5
  | Maximal number of non-zero basis functions:      443 in task     6
  | Maximal number of non-zero basis functions:      446 in task     7
  | Maximal number of non-zero basis functions:      437 in task     8
  | Maximal number of non-zero basis functions:      444 in task     9
  | Maximal number of non-zero basis functions:      433 in task    10
  | Maximal number of non-zero basis functions:      447 in task    11
  | Maximal number of non-zero basis functions:      428 in task    12
  | Maximal number of non-zero basis functions:      436 in task    13
  | Maximal number of non-zero basis functions:      446 in task    14
  | Maximal number of non-zero basis functions:      437 in task    15
  | Maximal number of non-zero basis functions:      443 in task    16
  | Maximal number of non-zero basis functions:      449 in task    17
  | Maximal number of non-zero basis functions:      448 in task    18
  | Maximal number of non-zero basis functions:      433 in task    19
  | Maximal number of non-zero basis functions:      436 in task    20
  | Maximal number of non-zero basis functions:      439 in task    21
  | Maximal number of non-zero basis functions:      439 in task    22
  | Maximal number of non-zero basis functions:      437 in task    23
  | Maximal number of non-zero basis functions:      446 in task    24
  | Maximal number of non-zero basis functions:      442 in task    25
  | Maximal number of non-zero basis functions:      442 in task    26
  | Maximal number of non-zero basis functions:      443 in task    27
  | Maximal number of non-zero basis functions:      437 in task    28
  | Maximal number of non-zero basis functions:      437 in task    29
  | Maximal number of non-zero basis functions:      436 in task    30
  | Maximal number of non-zero basis functions:      448 in task    31
  | Maximal number of non-zero basis functions:      442 in task    32
  | Maximal number of non-zero basis functions:      433 in task    33
  | Maximal number of non-zero basis functions:      441 in task    34
  | Maximal number of non-zero basis functions:      433 in task    35
  | Maximal number of non-zero basis functions:      443 in task    36
  | Maximal number of non-zero basis functions:      442 in task    37
  | Maximal number of non-zero basis functions:      431 in task    38
[...]
  | first_order_density                         :        2.924 s           2.895 s
  | first_order_potential                       :        1.675 s           1.675 s
  | first_order_H                               :        5.376 s           5.377 s
  | Solution of Sternheimer eqns.               :        0.657 s           0.657 s
------------------------------------------------------------

--------------------------------------------------------------
          Begin CP-self-consistency iteration #    8

          Date     :  20240930, Time     :  164049.001
--------------------------------------------------------------
  Starting DFPT first order density matrix calculation
  Finished DFPT first order density matrix calculation

  CPSCF convergence accuracy:
  | Change of first_order_density_matrix     :  0.2835E-01
  Starting DFPT first order electron density calculation
  Integrating first_order_rho: batch-based integration.
  Time summed over all CPUs for integration: real work      300.696 s, elapsed      310.081 s
  Starting DFPT first order potential calculation

  Evaluating partitioned Hartree potential by multipole expansion.
  | Original multipole sum: apparent total charge =  -0.806806E-14
  | Sum of charges compensated after spline to logarithmic grids =   0.339941E-13
  | Analytical far-field extrapolation by fixed multipoles:
  | Hartree multipole sum: apparent total charge =   0.255816E-14
  Summing up the Hartree potential.
  Time summed over all CPUs for potential: real work      168.389 s, elapsed      174.022 s
  | RMS delta_rho error from multipole expansion :   0.798693E-01

  Starting DFPT first order Hamiltonian calculation
  Integrating first-order-Hamiltonian matrix: batch-based integration.
  Time summed over all CPUs for integration: real work      534.027 s, elapsed      549.729 s
  Starting DFPT first order coefficients calculation
  End CPSCF iteration #     8                  :  max(cpu_time)    wall_clock(cpu1)
  | Time for this iteration                     :       11.550 s          11.549 s
  | first_order_DM                              :        0.601 s           0.599 s
  | first_order_density                         :        2.909 s           2.893 s
  | first_order_potential                       :        1.672 s           1.673 s
  | first_order_H                               :        5.374 s           5.374 s
  | Solution of Sternheimer eqns.               :        0.661 s           0.662 s
------------------------------------------------------------

--------------------------------------------------------------
          Begin CP-self-consistency iteration #    9

          Date     :  20240930, Time     :  164100.552
--------------------------------------------------------------
  Starting DFPT first order density matrix calculation
  Finished DFPT first order density matrix calculation

  CPSCF convergence accuracy:
  | Change of first_order_density_matrix     :  0.1026E-01
  Starting DFPT first order electron density calculation
  Integrating first_order_rho: batch-based integration.
  Time summed over all CPUs for integration: real work      302.577 s, elapsed      312.224 s
  Starting DFPT first order potential calculation

  Evaluating partitioned Hartree potential by multipole expansion.
  | Original multipole sum: apparent total charge =  -0.885519E-14
  | Sum of charges compensated after spline to logarithmic grids =   0.122152E-12
  | Analytical far-field extrapolation by fixed multipoles:
  | Hartree multipole sum: apparent total charge =  -0.590346E-15
  Summing up the Hartree potential.
  Time summed over all CPUs for potential: real work      171.823 s, elapsed      177.229 s
  | RMS delta_rho error from multipole expansion :   0.798720E-01

  Starting DFPT first order Hamiltonian calculation
  Integrating first-order-Hamiltonian matrix: batch-based integration.
  Time summed over all CPUs for integration: real work      534.445 s, elapsed      549.661 s
  Starting DFPT first order coefficients calculation
  End CPSCF iteration #     9                  :  max(cpu_time)    wall_clock(cpu1)
  | Time for this iteration                     :       11.597 s          11.595 s
  | first_order_DM                              :        0.603 s           0.601 s
  | first_order_density                         :        2.941 s           2.911 s
  | first_order_potential                       :        1.701 s           1.701 s
  | first_order_H                               :        5.374 s           5.375 s
  | Solution of Sternheimer eqns.               :        0.654 s           0.654 s
------------------------------------------------------------

--------------------------------------------------------------
          Begin CP-self-consistency iteration #   10

          Date     :  20240930, Time     :  164112.149
--------------------------------------------------------------
  Starting DFPT first order density matrix calculation
  Finished DFPT first order density matrix calculation

  CPSCF convergence accuracy:
  | Change of first_order_density_matrix     :  0.4961E-02
  Starting DFPT first order electron density calculation
  Integrating first_order_rho: batch-based integration.
  Time summed over all CPUs for integration: real work      300.979 s, elapsed      310.429 s
  Starting DFPT first order potential calculation

  Evaluating partitioned Hartree potential by multipole expansion.
  | Original multipole sum: apparent total charge =  -0.393564E-15
  | Sum of charges compensated after spline to logarithmic grids =   0.473752E-13
  | Analytical far-field extrapolation by fixed multipoles:
  | Hartree multipole sum: apparent total charge =  -0.295173E-14
  Summing up the Hartree potential.
  Time summed over all CPUs for potential: real work      168.865 s, elapsed      174.295 s
  | RMS delta_rho error from multipole expansion :   0.798722E-01

  Starting DFPT first order Hamiltonian calculation
  Integrating first-order-Hamiltonian matrix: batch-based integration.
  Time summed over all CPUs for integration: real work      533.961 s, elapsed      549.276 s
  Starting DFPT first order coefficients calculation
  End CPSCF iteration #    10                  :  max(cpu_time)    wall_clock(cpu1)
  | Time for this iteration                     :       11.553 s          11.552 s
  | first_order_DM                              :        0.604 s           0.603 s
  | first_order_density                         :        2.922 s           2.896 s
  | first_order_potential                       :        1.675 s           1.675 s
  | first_order_H                               :        5.375 s           5.376 s
  | Solution of Sternheimer eqns.               :        0.656 s           0.656 s
------------------------------------------------------------

--------------------------------------------------------------
          Begin CP-self-consistency iteration #   11

          Date     :  20240930, Time     :  164123.702
--------------------------------------------------------------
  Starting DFPT first order density matrix calculation
  Finished DFPT first order density matrix calculation

  CPSCF convergence accuracy:
  | Change of first_order_density_matrix     :  0.2670E-02
  Starting DFPT first order electron density calculation
  Integrating first_order_rho: batch-based integration.
  Time summed over all CPUs for integration: real work      300.527 s, elapsed      310.183 s
  Starting DFPT first order potential calculation

  Evaluating partitioned Hartree potential by multipole expansion.
  | Original multipole sum: apparent total charge =   0.216460E-14
  | Sum of charges compensated after spline to logarithmic grids =  -0.200226E-13
  | Analytical far-field extrapolation by fixed multipoles:
  | Hartree multipole sum: apparent total charge =  -0.885519E-14
  Summing up the Hartree potential.
  Time summed over all CPUs for potential: real work      168.893 s, elapsed      174.344 s
  | RMS delta_rho error from multipole expansion :   0.798703E-01

  Starting DFPT first order Hamiltonian calculation
  Integrating first-order-Hamiltonian matrix: batch-based integration.
  Time summed over all CPUs for integration: real work      534.293 s, elapsed      550.373 s
  Starting DFPT first order coefficients calculation
  End CPSCF iteration #    11                  :  max(cpu_time)    wall_clock(cpu1)
  | Time for this iteration                     :       11.549 s          11.549 s
  | first_order_DM                              :        0.599 s           0.598 s
  | first_order_density                         :        2.925 s           2.894 s
  | first_order_potential                       :        1.675 s           1.675 s
  | first_order_H                               :        5.380 s           5.381 s
  | Solution of Sternheimer eqns.               :        0.657 s           0.657 s
------------------------------------------------------------

--------------------------------------------------------------
          Begin CP-self-consistency iteration #   12

          Date     :  20240930, Time     :  164135.254
--------------------------------------------------------------
  Starting DFPT first order density matrix calculation
  Finished DFPT first order density matrix calculation

  CPSCF convergence accuracy:
  | Change of first_order_density_matrix     :  0.5726E-03
  Starting DFPT first order electron density calculation
  Integrating first_order_rho: batch-based integration.
  Time summed over all CPUs for integration: real work      300.824 s, elapsed      310.288 s
  Starting DFPT first order potential calculation

  Evaluating partitioned Hartree potential by multipole expansion.
  | Original multipole sum: apparent total charge =   0.413242E-14
  | Sum of charges compensated after spline to logarithmic grids =   0.885519E-14
  | Analytical far-field extrapolation by fixed multipoles:
  | Hartree multipole sum: apparent total charge =   0.236138E-13
  Summing up the Hartree potential.
  Time summed over all CPUs for potential: real work      172.389 s, elapsed      177.958 s
  | RMS delta_rho error from multipole expansion :   0.798691E-01

  Starting DFPT first order Hamiltonian calculation
  Integrating first-order-Hamiltonian matrix: batch-based integration.
  Time summed over all CPUs for integration: real work      533.462 s, elapsed      549.411 s
  Starting DFPT first order coefficients calculation

  CP-self-consistency cycle converged.

  End CPSCF iteration #    12                  :  max(cpu_time)    wall_clock(cpu1)
  | Time for this iteration                     :       11.593 s          11.591 s
  | first_order_DM                              :        0.604 s           0.601 s
  | first_order_density                         :        2.912 s           2.893 s
  | first_order_potential                       :        1.712 s           1.712 s
  | first_order_H                               :        5.375 s           5.375 s
  | Solution of Sternheimer eqns.               :        0.658 s           0.658 s
------------------------------------------------------------
  Electric field response: Starting output of polarizability tensor
DFPT for polarizability (Bohr^3) :--->
   493.487338411429      -3.754970111012196E-004 -2.381435196437132E-008
 -1.104758645675830E-014   413.277007453171      -4.523307292875086E-004
 -4.255883839787700E-014  3.705391028729910E-014   370.243892913896
The mean polarizability is  425.669413
DFPT polarizability (Bohr^3)        xx        yy        zz        xy        xz        yz
  | Polarizability:--->            493.4873384   413.2770075   370.2438929    -0.0003755    -0.0000000    -0.0004523
  Electric field response: Begin calculation of dielectric constant

DFPT for dielectric_constant:--->
   2.31603537531729      -1.001377971572435E-006 -6.350827505778972E-011
 -2.946177836248506E-017   2.10212992163984      -1.206278651447658E-006
 -1.134961983914622E-016  9.881561883410163E-017   1.98736892042333
  Cleaning up pulay mixer
  Starting DFPT general deallocation
  Starting electric field response deallocation

------------------------------------------------------------------------------
  Final output of selected total energy values:

  The following output summarizes some interesting total energy values
  at the end of a run (AFTER all relaxation, molecular dynamics, etc.).

  | Total energy of the DFT / Hartree-Fock s.c.f. calculation      :         -49228.224531097 eV
  | Final zero-broadening corrected energy (caution - metals only) :         -49228.224531097 eV
  | For reference only, the value of 1 Hartree used in FHI-aims is :             27.211384500 eV
  | For reference only, the overall average (free atom contribution
  | + realspace contribution) of the electrostatic potential after
  | s.c.f. convergence is                                          :             -7.497041192 eV

  Before relying on these values, please be sure to understand exactly which
  total energy value is referred to by a given number. Different objects may
  all carry the same name 'total energy'. Definitions:

  Total energy of the DFT / Hartree-Fock s.c.f. calculation:
  | Note that this energy does not include ANY quantities calculated after the
  | s.c.f. cycle, in particular not ANY RPA, MP2, etc. many-body perturbation terms.

  Final zero-broadening corrected energy:
  | For metallic systems only, a broadening of the occupation numbers at the Fermi
  | level can be extrapolated back to zero broadening by an electron-gas inspired
  | formula. For all systems that are not real metals, this value can be
  | meaningless and should be avoided.

------------------------------------------------------------------------------
  Methods described in the following list of references were used in this FHI-aims run.
  If you publish the results, please make sure to cite these reference if they apply.
  FHI-aims is an academic code, and for our developers (often, Ph.D. students
  and postdocs), scientific credit in the community is essential.
  Thank you for helping us!

  For any use of FHI-aims, please cite:

    Volker Blum, Ralf Gehrke, Felix Hanke, Paula Havu, Ville Havu,
    Xinguo Ren, Karsten Reuter, and Matthias Scheffler
    'Ab initio molecular simulations with numeric atom-centered orbitals'
    Computer Physics Communications 180, 2175-2196 (2009)
    http://doi.org/10.1016/j.cpc.2009.06.022


  The provided symmetry information was generated with SPGlib:

    Atsushi Togo, Yusuke Seto, Dimitar Pashov
    SPGlib 1.7.3 obtained from http://spglib.sourceforge.net
    Licence: New BSD license
    Copyright (C) 2008 Atsushi Togo


  The DFPT (perturbation by an electric field) part of the code was used.
  Here is the corresponding reference:

    Honghui Shang, Nathaniel Raimbault, Mariana Rossi,
    Christian Carbogno, Patrick Rinke and Matthias Scheffler,
    'All-Electron, Real-Space Perturbation Theory for Homogeneous
    Electric Fields: Theory, Implementation, and Application within dft'
    New Journal of Physics, 20(7):073040, 2018


  The ELSI infrastructure was used in your run to solve the Kohn-Sham electronic structure.
  Please check out https://wordpress.elsi-interchange.org to learn more.
  If scalability is important for your project, please acknowledge ELSI by citing:

    V. W-z. Yu, F. Corsetti, A. Garcia, W. P. Huhn, M. Jacquelin, W. Jia,
    B. Lange, L. Lin, J. Lu, W. Mi, A. Seifitokaldani, A. Vazquez-Mayagoitia,
    C. Yang, H. Yang, and V. Blum
    'ELSI: A unified software interface for Kohn-Sham electronic structure solvers'
    Computer Physics Communications 222, 267-285 (2018).
    http://doi.org/10.1016/j.cpc.2017.09.007


  For the real-space grid partitioning and parallelization used in this calculation, please cite:

    Ville Havu, Volker Blum, Paula Havu, and Matthias Scheffler,
    'Efficient O(N) integration for all-electron electronic structure calculation'
    'using numerically tabulated basis functions'
    Journal of Computational Physics 228, 8367-8379 (2009).
    http://doi.org/10.1016/j.jcp.2009.08.008

  Of course, there are many other important community references, e.g., those cited in the
  above references. Our list is limited to references that describe implementations in the
  FHI-aims code. The reason is purely practical (length of this list) - please credit others as well.

------------------------------------------------------------
          Leaving FHI-aims.
          Date     :  20240930, Time     :  164147.010

          Computational steps:
          | Number of self-consistency cycles          :           18
          | Number of SCF (re)initializations          :            1
          | Number of coupled perturbed self-consistency cycles          :           35
          | Number of CPSCF (re)initializations          :            3

          Detailed time accounting                     :  max(cpu_time)    wall_clock(cpu1)
          | Total time                                  :      487.305 s         487.350 s
          | Preparation time                            :        0.184 s           0.178 s
          | Boundary condition initalization            :        0.124 s           0.123 s
          | Grid partitioning                           :        0.375 s           0.375 s
          | Preloading free-atom quantities on grid     :        0.867 s           0.865 s
          | Free-atom superposition energy              :        0.094 s           0.095 s
          | Total time for integrations                 :       12.905 s          12.907 s
          | Total time for solution of K.-S. equations  :       28.087 s          28.093 s
          | Total time for density update               :       23.073 s          23.082 s
          | Total time for mixing                       :        0.160 s           0.160 s
          | Total time for Hartree multipole update     :        0.712 s           0.722 s
          | Total time for Hartree multipole sum        :        7.373 s           7.374 s
          | Total time for total energy evaluation      :        0.012 s           0.023 s
          | Total time for scaled ZORA corrections      :        0.000 s           0.000 s
          | Total time for DFPT                         :      404.205 s         404.114 s
          | Total time first_order_DM                   :       21.279 s          21.222 s
          | Total time first_order_density              :      101.980 s         101.306 s
          | Total time first_order_potential            :       59.479 s          59.489 s
          | Total time first_order_H                    :      188.051 s         188.063 s
          | Total time solving of Sternheimer equations :       24.910 s          25.229 s
          | Total time for dielectric constant          :        0.028 s           0.016 s
          | Total time momentum matrix                  :        0.000 s           0.000 s

          Partial memory accounting:
          | Residual value for overall tracked memory usage across tasks:     0.000000 MB (should be 0.000000 MB)
          | Peak values for overall tracked memory usage:
          |   Minimum:      218.149 MB (on task  46 after allocating DFPT_pulay_mixing::pulay_mix::alphas)
          |   Maximum:      226.244 MB (on task  39 after allocating DFPT_pulay_mixing::pulay_mix::alphas)
          |   Average:      221.478 MB
          | Largest tracked array allocation:
          |   Minimum:       50.187 MB (DFPT_pulay_mixing::initialize_pulay_mixing::X_in_diffs on task   0)
          |   Maximum:       71.191 MB (momentum_matrix_complex on task   1)
          |   Average:       58.745 MB
          Note:  These values currently only include a subset of arrays which are explicitly tracked.
          The "true" memory usage will be greater.

          Have a nice day.
------------------------------------------------------------
