14.399652
    3.059151   -0.000000   -0.000000   -0.000000    3.059150   -0.000000   -0.000000    0.000000    3.059150
    1.989181    0.000000    0.000000    0.000000    1.983162    0.000000    0.000000    0.000000    1.989180
   -1.989188    0.000000    0.000000    0.000000   -1.989188    0.000000    0.000000    0.000000   -1.989188
