------------------------------------------------------------
          Invoking FHI-aims ...

          When using FHI-aims, please cite the following reference:

            Volker Blum, Ralf Gehrke, Felix Hanke, Paula Havu,
            Ville Havu, Xinguo Ren, Karsten Reuter, and Matthias Scheffler,
            'Ab Initio Molecular Simulations with Numeric Atom-Centered Orbitals',
            Computer Physics Communications 180, 2175-2196 (2009)

          In addition, many other developments in FHI-aims are likely important for
          your particular application. If so, please cite them. A partial list of references
          is written at the end of this file. Thank you for giving credit to the authors
          of these developments.

          For general information about FHI-aims please find us at

            https://fhi-aims.org

          Online tutorials can be found at

            https://fhi-aims-club.gitlab.io/tutorials/tutorials-overview/

          For any questions about FHI-aims, please visit our slack channel at

            https://fhi-aims.slack.com

          and our main development and support site at

            https://aims-git.rz-berlin.mpg.de .

          The latter site, in particular, has a wiki to collect information, as well
          as an issue tracker to log discussions, suggest improvements, and report issues
          or bugs. https://aims-git.rz-berlin.mpg.de is also the main development site
          of the project and all new and updated code versions can be obtained there.
          Please send an email to aims-coordinators@fhi-berlin.mpg.de and we will add
          you to these sites. They are for you and everyone is welcome there.

------------------------------------------------------------



  Date     :  20240930, Time     :  163435.513
  Time zero on CPU 1             :   0.124621000000000E+00  s.
  Internal wall clock time zero  :           496946075.513  s.

  FHI-aims created a unique identifier for this run for later identification
  aims_uuid : A6EAE79B-5560-42C5-AF36-560B08655CA0

  Build configuration of the current instance of FHI-aims
  -------------------------------------------------------
  FHI-aims version      : 240507
  Commit number         : 189b292af
  CMake host system     : Linux-6.7.12-amd64
  CMake version         : 3.29.6
  Fortran compiler      : /opt/software/openmpi-4.1.6_intel/bin/mpif90 (Intel) version 2021.8.0.20221119
  Fortran compiler flags: -O3 -march=core-avx2 -fma -ftz -align array64byte -fomit-frame-pointer
  C compiler            : /usr/bin/cc (GNU) version 13.2.0
  C compiler flags      : -Ofast
  C++ compiler          : /usr/bin/g++ (GNU) version 13.2.0
  C++ compiler flags    : -Ofast
  HIP compiler          :
  HIP compiler flags    :
  HIP GPU arch          :
  Using MPI
  Using ScaLAPACK
  Using LibXC
  Using i-PI
  Using RLSY
  Linking against: /opt/software/intel/oneapi/mkl/2023.0.0/lib/intel64/libmkl_intel_lp64.so
                   /opt/software/intel/oneapi/mkl/2023.0.0/lib/intel64/libmkl_sequential.so
                   /opt/software/intel/oneapi/mkl/2023.0.0/lib/intel64/libmkl_core.so
                   /opt/software/intel/oneapi/mkl/2023.0.0/lib/intel64/libmkl_scalapack_lp64.so
                   /opt/software/intel/oneapi/mkl/2023.0.0/lib/intel64/libmkl_blacs_openmpi_lp64.so

  Using       56 parallel tasks.
  Task        0 on host h10 reporting.
  Task        1 on host h10 reporting.
  Task        2 on host h10 reporting.
  Task        3 on host h10 reporting.
  Task        4 on host h10 reporting.
  Task        5 on host h10 reporting.
  Task        6 on host h10 reporting.
  Task        7 on host h10 reporting.
  Task        8 on host h10 reporting.
  Task        9 on host h10 reporting.
  Task       10 on host h10 reporting.
  Task       11 on host h10 reporting.
  Task       12 on host h10 reporting.
  Task       13 on host h10 reporting.
  Task       14 on host h10 reporting.
  Task       15 on host h10 reporting.
  Task       16 on host h10 reporting.
  Task       17 on host h10 reporting.
  Task       18 on host h10 reporting.
  Task       19 on host h10 reporting.
  Task       20 on host h10 reporting.
  Task       21 on host h10 reporting.
  Task       22 on host h10 reporting.
  Task       23 on host h10 reporting.
  Task       24 on host h10 reporting.
  Task       25 on host h10 reporting.
  Task       26 on host h10 reporting.
  Task       27 on host h10 reporting.
  Task       28 on host h10 reporting.
  Task       29 on host h10 reporting.
  Task       30 on host h10 reporting.
  Task       31 on host h10 reporting.
  Task       32 on host h10 reporting.
  Task       33 on host h10 reporting.
  Task       34 on host h10 reporting.
  Task       35 on host h10 reporting.
  Task       36 on host h10 reporting.
  Task       37 on host h10 reporting.
  Task       38 on host h10 reporting.
  Task       39 on host h10 reporting.
  Task       40 on host h10 reporting.
  Task       41 on host h10 reporting.
  Task       42 on host h10 reporting.
  Task       43 on host h10 reporting.
  Task       44 on host h10 reporting.
  Task       45 on host h10 reporting.
  Task       46 on host h10 reporting.
  Task       47 on host h10 reporting.
  Task       48 on host h10 reporting.
  Task       49 on host h10 reporting.
  Task       50 on host h10 reporting.
  Task       51 on host h10 reporting.
  Task       52 on host h10 reporting.
  Task       53 on host h10 reporting.
  Task       54 on host h10 reporting.
  Task       55 on host h10 reporting.

  Memory overcommitment is allowed on your operating system.

  Obtaining array dimensions for all initial allocations:
  
  -----------------------------------------------------------------------
  Parsing control.in (first pass over file, find array dimensions only).
  The contents of control.in will be repeated verbatim below
  unless switched off by setting 'verbatim_writeout .false.' .
  in the first line of control.in .
  -----------------------------------------------------------------------
  
  # Physical  settings
  xc                 pbe
  spin               none
  relativistic       atomic_zora scalar
  ## SCF  settings
  sc_accuracy_rho     1E-6
  sc_iter_limit        100
  k_grid   8 8 8
  output polarization 1 15 4 4
  output polarization 2 4 15 4
  output polarization 3 4 4 15
  
  
  ################################################################################
  #
  #  FHI-aims code project
  #  VB, Fritz-Haber Institut, 2009
  #
  #  Suggested "light_dense" defaults for C atom (to be pasted into control.in file)
  #  These settings use a light basis set with a dense angular integration grid.
  #  Be sure to double-check any results obtained with these settings for post-processing,
  #  e.g., with the "tight" defaults and larger basis sets.
  #
  ################################################################################
  species        C
  #     global species definitions
  nucleus             6
  mass                12.0107
  #
  l_hartree            8
  #
  cut_pot             3.5  1.5  1.0
  basis_dep_cutoff    1e-4
  #
  radial_base         34 7.0
  radial_multiplier   2
  angular_grids specified
  #      division   0.2187   50
  division   0.4416  110
  division   0.6335  194
  division   0.7727  302
  division   0.8772  434
  #      division   0.9334  590
  #      division   0.9924  770
  #      division   1.0230  974
  #      division   1.5020 1202
  #     outer_grid  974
  outer_grid  434
  ################################################################################
  #
  #  Definition of "minimal" basis
  #
  ################################################################################
  #     valence basis states
  valence      2  s   2.
  valence      2  p   2.
  #     ion occupancy
  ion_occ      2  s   1.
  ion_occ      2  p   1.
  ################################################################################
  #
  #  Suggested additional basis functions. For production calculations,
  #  uncomment them one after another (the most important basis functions are
  #  listed first).
  #
  #  Constructed for dimers: 1.0 A, 1.25 A, 1.5 A, 2.0 A, 3.0 A
  #
  ################################################################################
  #  "First tier" - improvements: -1214.57 meV to -155.61 meV
  hydro 2 p 1.7
  hydro 3 d 6
  hydro 2 s 4.9
  #  "Second tier" - improvements: -67.75 meV to -5.23 meV
  #     hydro 4 f 9.8
  #     hydro 3 p 5.2
  #     hydro 3 s 4.3
  #     hydro 5 g 14.4
  #     hydro 3 d 6.2
  #  "Third tier" - improvements: -2.43 meV to -0.60 meV
  #     hydro 2 p 5.6
  #     hydro 2 s 1.4
  #     hydro 3 d 4.9
  #     hydro 4 f 11.2
  #  "Fourth tier" - improvements: -0.39 meV to -0.18 meV
  #     hydro 2 p 2.1
  #     hydro 5 g 16.4
  #     hydro 4 d 13.2
  #     hydro 3 s 13.6
  #     hydro 4 f 17.6
  #  Further basis functions - improvements: -0.08 meV and below
  #     hydro 3 s 2
  #     hydro 3 p 6
  #     hydro 4 d 20
  ################################################################################
  #
  #  FHI-aims code project
  #  VB, Fritz-Haber Institut, 2009
  #
  #  Suggested "light_dense" defaults for N atom (to be pasted into control.in file)
  #  These settings use a light basis set with a dense angular integration grid.
  #  Be sure to double-check any results obtained with these settings for post-processing,
  #  e.g., with the "tight" defaults and larger basis sets.
  #
  ################################################################################
  species        N
  #     global species definitions
  nucleus             7
  mass                14.0067
  #
  l_hartree            8
  #
  cut_pot             3.5  1.5  1.0
  basis_dep_cutoff    1e-4
  #
  radial_base         35 7.0
  radial_multiplier   2
  angular_grids       specified
  #      division   0.1841   50
  division   0.3514  110
  division   0.5126  194
  division   0.6292  302
  division   0.6939  434
  #      division   0.7396  590
  #      division   0.7632  770
  #      division   0.8122  974
  #      division   1.1604 1202
  #      outer_grid  974
  outer_grid  434
  ################################################################################
  #
  #  Definition of "minimal" basis
  #
  ################################################################################
  #     valence basis states
  valence      2  s   2.
  valence      2  p   3.
  #     ion occupancy
  ion_occ      2  s   1.
  ion_occ      2  p   2.
  ################################################################################
  #
  #  Suggested additional basis functions. For production calculations,
  #  uncomment them one after another (the most important basis functions are
  #  listed first).
  #
  #  Constructed for dimers: 1.0 A, 1.1 A, 1.5 A, 2.0 A, 3.0 A
  #
  ################################################################################
  #  "First tier" - improvements: -1193.42 meV to -220.60 meV
  hydro 2 p 1.8
  hydro 3 d 6.8
  hydro 3 s 5.8
  #  "Second tier" - improvements: -80.21 meV to -6.86 meV
  #     hydro 4 f 10.8
  #     hydro 3 p 5.8
  #     hydro 1 s 0.8
  #     hydro 5 g 16
  #     hydro 3 d 4.9
  #  "Third tier" - improvements: -4.29 meV to -0.53 meV
  #     hydro 3 s 16
  #     ionic 2 p auto
  #     hydro 3 d 6.6
  #     hydro 4 f 11.6
  #  "Fourth tier" - improvements: -0.75 meV to -0.25 meV
  #     hydro 2 p 4.5
  #     hydro 2 s 2.4
  #     hydro 5 g 14.4
  #     hydro 4 d 14.4
  #     hydro 4 f 16.8
  # Further basis functions - -0.21 meV and below
  #     hydro 3 p 14.8
  #     hydro 3 s 4.4
  #     hydro 3 d 19.6
  #     hydro 5 g 12.8
  ################################################################################
  #
  #  FHI-aims code project
  #  VB, Fritz-Haber Institut, 2009
  #
  #  Suggested "light_dense" defaults for H atom (to be pasted into control.in file)
  #  These settings use a light basis set with a dense angular integration grid.
  #  Be sure to double-check any results obtained with these settings for post-processing,
  #  e.g., with the "tight" defaults and larger basis sets.
  #
  ################################################################################
  species        H
  #     global species definitions
  nucleus             1
  mass                1.00794
  #
  l_hartree            8
  #
  cut_pot             3.5  1.5  1.0
  basis_dep_cutoff    1e-4
  #
  radial_base         24 7.0
  radial_multiplier   2
  angular_grids       specified
  #      division   0.1930   50
  division   0.3175  110
  division   0.4293  194
  division   0.5066  302
  division   0.5626  434
  #      division   0.5922  590
  #      division   0.6227  974
  #      division   0.6868 1202
  #      outer_grid  770
  outer_grid  434
  ################################################################################
  #
  #  Definition of "minimal" basis
  #
  ################################################################################
  #     valence basis states
  valence      1  s   1.
  #     ion occupancy
  ion_occ      1  s   0.5
  ################################################################################
  #
  #  Suggested additional basis functions. For production calculations,
  #  uncomment them one after another (the most important basis functions are
  #  listed first).
  #
  #  Basis constructed for dimers: 0.5 A, 0.7 A, 1.0 A, 1.5 A, 2.5 A
  #
  ################################################################################
  #  "First tier" - improvements: -1014.90 meV to -62.69 meV
  hydro 2 s 2.1
  hydro 2 p 3.5
  #  "Second tier" - improvements: -12.89 meV to -1.83 meV
  #     hydro 1 s 0.85
  #     hydro 2 p 3.7
  #     hydro 2 s 1.2
  #     hydro 3 d 7
  #  "Third tier" - improvements: -0.25 meV to -0.12 meV
  #     hydro 4 f 11.2
  #     hydro 3 p 4.8
  #     hydro 4 d 9
  #     hydro 3 s 3.2
  
  -----------------------------------------------------------------------
  Completed first pass over input file control.in .
  -----------------------------------------------------------------------
  
  
  -----------------------------------------------------------------------
  Parsing geometry.in (first pass over file, find array dimensions only).
  The contents of geometry.in will be repeated verbatim below
  unless switched off by setting 'verbatim_writeout .false.' .
  in the first line of geometry.in .
  -----------------------------------------------------------------------
  
  #===============================================================================
  # Created using the Atomic Simulation Environment (ASE)
  
  # Mon Sep 30 16:33:09 2024
  
  #=======================================================
  lattice_vector 8.1899999999999995 0.0000000000000000 0.0000000000000000
  lattice_vector 0.0000000000000000 12.5879999999999992 0.0000000000000000
  lattice_vector 0.0000000000000000 0.0000000000000000 6.7729999999999997
  atom 2.4420941999999997 0.7410555599999999 2.6032025500000002 C
  atom 2.4420941999999997 5.5529444400000001 5.9897025499999996 C
  atom 6.5370941999999994 7.0350555599999991 0.7832974500000000 C
  atom 6.5370941999999994 11.8469444399999997 4.1697974499999999 C
  atom 5.9529833999999990 2.3358292800000000 6.2911010499999991 C
  atom 5.9529833999999990 3.9455827199999995 2.9046010500000001 C
  atom 1.8579834000000000 8.6424172799999983 3.8683989500000000 C
  atom 1.8579834000000000 10.2395827199999996 0.4818989500000000 C
  atom 3.2683013999999999 1.4740547999999998 3.4454928299999996 C
  atom 3.2683013999999999 4.8199452000000003 0.0589928300000000 C
  atom 7.3633013999999992 7.7680547999999989 6.7140071699999995 C
  atom 7.3633013999999992 11.1139451999999999 3.3275071700000001 C
  atom 5.0876279999999996 1.3805259599999999 0.0121914000000000 C
  atom 5.0876279999999996 4.9134740399999997 3.3986914000000001 C
  atom 0.9926280000000000 7.6745259600000004 3.3743085999999995 C
  atom 0.9926280000000000 11.2074740399999992 6.7608085999999998 C
  atom 2.4835355999999997 2.4951933600000000 3.9164195199999998 C
  atom 2.4835355999999997 3.7988066399999996 0.5299195200000000 C
  atom 6.5785355999999995 8.7891933599999987 6.2430804799999997 C
  atom 6.5785355999999995 10.0928066399999992 2.8565804799999999 C
  atom 5.8269393000000003 0.6714439200000000 0.9237017399999999 C
  atom 5.8269393000000003 5.6225560799999998 4.3102017399999992 C
  atom 1.7319392999999998 6.9654439200000002 2.4627982600000000 C
  atom 1.7319392999999998 11.9165560799999994 5.8492982600000003 C
  atom 0.5016375000000000 2.7490933199999996 3.5760085399999997 H
  atom 0.5016375000000000 3.5449066800000000 0.1895085400000000 H
  atom 4.5966374999999999 9.0430933199999988 6.5834914599999994 H
  atom 4.5966374999999999 9.8389066799999991 3.1969914600000000 H
  atom 7.7177645999999989 1.0839526800000001 1.5260246300000000 H
  atom 7.7177645999999989 5.2100473199999993 4.9125246300000001 H
  atom 3.6227646000000000 7.3779526799999999 1.8604753699999999 H
  atom 3.6227646000000000 11.5040473199999997 5.2469753699999995 H
  atom 2.6050751999999995 3.2289478799999998 4.6443138299999998 H
  atom 2.6050751999999995 3.0650521199999998 1.2578138299999999 H
  atom 6.7000751999999997 9.5229478800000003 5.5151861699999998 H
  atom 6.7000751999999997 9.3590521199999994 2.1286861699999999 H
  atom 5.6044988999999994 12.5230459199999977 1.6243685899999998 H
  atom 5.6044988999999994 6.3589540800000002 5.0108685899999994 H
  atom 1.5094988999999999 6.2290459199999999 1.7621314100000001 H
  atom 1.5094988999999999 0.0649540800000000 5.1486314100000001 H
  atom 4.1589638999999998 1.2640869599999998 3.6364236999999999 H
  atom 4.1589638999999998 5.0299130399999994 0.2499237000000000 H
  atom 0.0639639000000000 7.5580869599999989 6.5230762999999996 H
  atom 0.0639639000000000 11.3239130399999990 3.1365762999999998 H
  atom 4.1922153000000000 1.2854865600000001 6.5339808299999991 H
  atom 4.1922153000000000 5.0085134399999998 3.1474808300000001 H
  atom 0.0972153000000000 7.5794865599999994 3.6255191700000000 H
  atom 0.0972153000000000 11.3025134400000002 0.2390191700000000 H
  atom 2.6271882000000000 12.5595511199999983 2.1784677199999996 H
  atom 2.6271882000000000 6.3224488800000005 5.5649677200000003 H
  atom 6.7221881999999988 6.2655511199999996 1.2080322799999998 H
  atom 6.7221881999999988 0.0284488800000000 4.5945322799999992 H
  atom 5.7682988999999996 3.0163365599999996 5.7200016900000001 H
  atom 5.7682988999999996 3.2776634400000000 2.3335016899999999 H
  atom 1.6732988999999998 9.3103365599999997 4.4394983099999994 H
  atom 1.6732988999999998 9.5716634399999982 1.0529983100000000 H
  atom 1.2755105999999998 2.3204719199999997 3.3718703199999998 N
  atom 1.2755105999999998 3.9735280799999999 6.7583703199999992 N
  atom 5.3705105999999994 8.6144719199999980 0.0146296800000000 N
  atom 5.3705105999999994 10.2675280799999999 3.4011296800000004 N
  atom 7.0383221999999996 1.2356380800000000 0.9432079799999999 N
  atom 7.0383221999999996 5.0583619199999994 4.3297079800000002 N
  atom 2.9433221999999994 7.5296380799999998 2.4432920199999999 N
  atom 2.9433221999999994 11.3523619199999981 5.8297920199999993 N
  atom 1.2126113999999999 1.2420579599999999 2.5584330199999998 N
  atom 1.2126113999999999 5.0519420400000001 5.9449330199999997 N
  atom 5.3076113999999999 7.5360579599999999 0.8280669799999999 N
  atom 5.3076113999999999 11.3459420399999988 4.2145669799999999 N
  atom 7.1500338000000001 2.2790573999999997 0.0900131700000000 N
  atom 7.1500338000000001 4.0149425999999995 3.4765131700000000 N
  atom 3.0550337999999999 8.5730573999999997 3.2964868299999996 N
  atom 3.0550337999999999 10.3089425999999982 6.6829868299999999 N
  
  -----------------------------------------------------------------------
  Completed first pass over input file geometry.in .
  -----------------------------------------------------------------------
  

  Basic array size parameters:
  | Number of species                 :        3
  | Number of atoms                   :       72
  | Number of lattice vectors         :        3
  | Max. basis fn. angular momentum   :        2
  | Max. atomic/ionic basis occupied n:        2
  | Max. number of basis fn. types    :        2
  | Max. radial fns per species/type  :        3
  | Max. logarithmic grid size        :     1290
  | Max. radial integration grid size :       71
  | Max. angular integration grid size:      434
  | Max. angular grid division number :        8
  | Radial grid for Hartree potential :     1290
  | Number of spin channels           :        1

------------------------------------------------------------
          Reading file control.in.
------------------------------------------------------------
  XC: Using PBE gradient-corrected functionals.
  Spin treatment: No spin polarisation.
  Scalar relativistic treatment of kinetic energy: on-site free-atom approximation to ZORA.
  Convergence accuracy of self-consistent charge density:  0.1000E-05
  Maximum number of s.-c. iterations  :   100
  Found k-point grid:         8         8         8

  Polarization directive number:    1
  | Calculating polarization along reciprocal lattice vector 1 using   15 k-points parallel to this direction.
  | Full Brillouin zone sampling is thus performed on a    15 x     4 x     4 grid

  Polarization directive number:    2
  | Calculating polarization along reciprocal lattice vector 2 using   15 k-points parallel to this direction.
  | Full Brillouin zone sampling is thus performed on a     4 x    15 x     4 grid

  Polarization directive number:    3
  | Calculating polarization along reciprocal lattice vector 3 using   15 k-points parallel to this direction.
  | Full Brillouin zone sampling is thus performed on a     4 x     4 x    15 grid
 
  Reading configuration options for species C                   .
  | Found nuclear charge :   6.0000
  | Found atomic mass :    12.0107000000000      amu
  | Found l_max for Hartree potential  :   8
  | Found cutoff potl. onset [A], width [A], scale factor :    3.50000    1.50000    1.00000
  | Threshold for basis-dependent cutoff potential is   0.100000E-03
  | Found data for basic radial integration grid :    34 points, outermost radius =    7.000 A
  | Found multiplier for basic radial grid :   2
  | Found angular grid specification: user-specified.
  | Specified grid contains     5 separate shells.
  | Check grid settings after all constraints further below.
  | Found free-atom valence shell :  2 s   2.000
  | Found free-atom valence shell :  2 p   2.000
  | No ionic wave fns used. Skipping ion_occ.
  | No ionic wave fns used. Skipping ion_occ.
  | Found hydrogenic basis function :  2 p   1.700
  | Found hydrogenic basis function :  3 d   6.000
  | Found hydrogenic basis function :  2 s   4.900
 | Encountered keyword species, ending the description of species C                   .
  Species C                   : Missing cutoff potential type.
  Defaulting to exp(1/x)/(1-x)^2 type cutoff potential.
  Species C : No 'logarithmic' tag. Using default grid for free atom:
  | Default logarithmic grid data [bohr] : 0.1000E-03 0.1000E+03 0.1012E+01
  Species C : On-site basis accuracy parameter (for Gram-Schmidt orthonormalisation) not specified.
  Using default value basis_acc =  0.1000000E-03.
  Species C                   : Using default innermost maximum threshold i_radial=  2 for radial functions.
  Species C                   : Default cutoff onset for free atom density etc. : 0.35000000E+01 AA.
  Species C                   : Basic radial grid will be enhanced according to radial_multiplier =   2, to contain    69 grid points.
 
  Reading configuration options for species N                   .
  | Found nuclear charge :   7.0000
  | Found atomic mass :    14.0067000000000      amu
  | Found l_max for Hartree potential  :   8
  | Found cutoff potl. onset [A], width [A], scale factor :    3.50000    1.50000    1.00000
  | Threshold for basis-dependent cutoff potential is   0.100000E-03
  | Found data for basic radial integration grid :    35 points, outermost radius =    7.000 A
  | Found multiplier for basic radial grid :   2
  | Found angular grid specification: user-specified.
  | Specified grid contains     5 separate shells.
  | Check grid settings after all constraints further below.
  | Found free-atom valence shell :  2 s   2.000
  | Found free-atom valence shell :  2 p   3.000
  | No ionic wave fns used. Skipping ion_occ.
  | No ionic wave fns used. Skipping ion_occ.
  | Found hydrogenic basis function :  2 p   1.800
  | Found hydrogenic basis function :  3 d   6.800
  | Found hydrogenic basis function :  3 s   5.800
 | Encountered keyword species, ending the description of species N                   .
  Species N                   : Missing cutoff potential type.
  Defaulting to exp(1/x)/(1-x)^2 type cutoff potential.
  Species N : No 'logarithmic' tag. Using default grid for free atom:
  | Default logarithmic grid data [bohr] : 0.1000E-03 0.1000E+03 0.1012E+01
  Species N : On-site basis accuracy parameter (for Gram-Schmidt orthonormalisation) not specified.
  Using default value basis_acc =  0.1000000E-03.
  Species N                   : Using default innermost maximum threshold i_radial=  2 for radial functions.
  Species N                   : Default cutoff onset for free atom density etc. : 0.35000000E+01 AA.
  Species N                   : Basic radial grid will be enhanced according to radial_multiplier =   2, to contain    71 grid points.
 
  Reading configuration options for species H                   .
  | Found nuclear charge :   1.0000
  | Found atomic mass :    1.00794000000000      amu
  | Found l_max for Hartree potential  :   8
  | Found cutoff potl. onset [A], width [A], scale factor :    3.50000    1.50000    1.00000
  | Threshold for basis-dependent cutoff potential is   0.100000E-03
  | Found data for basic radial integration grid :    24 points, outermost radius =    7.000 A
  | Found multiplier for basic radial grid :   2
  | Found angular grid specification: user-specified.
  | Specified grid contains     5 separate shells.
  | Check grid settings after all constraints further below.
  | Found free-atom valence shell :  1 s   1.000
  | No ionic wave fns used. Skipping ion_occ.
  | Found hydrogenic basis function :  2 s   2.100
  | Found hydrogenic basis function :  2 p   3.500
  Species H                   : Missing cutoff potential type.
  Defaulting to exp(1/x)/(1-x)^2 type cutoff potential.
  Species H : No 'logarithmic' tag. Using default grid for free atom:
  | Default logarithmic grid data [bohr] : 0.1000E-03 0.1000E+03 0.1012E+01
  Species H : On-site basis accuracy parameter (for Gram-Schmidt orthonormalisation) not specified.
  Using default value basis_acc =  0.1000000E-03.
  Species H                   : Using default innermost maximum threshold i_radial=  2 for radial functions.
  Species H                   : Default cutoff onset for free atom density etc. : 0.35000000E+01 AA.
  Species H                   : Basic radial grid will be enhanced according to radial_multiplier =   2, to contain    49 grid points.
 
  Finished reading input file 'control.in'.
 
------------------------------------------------------------


------------------------------------------------------------
          Reading geometry description geometry.in.
------------------------------------------------------------
  | The smallest distance between any two atoms is         0.89798608 AA.
  | The first atom of this pair is atom number                      6 .
  | The second atom of this pair is atom number                    54 .
  | Wigner-Seitz cell of the first atom image           0     0     0 .
  | (The Wigner-Seitz cell of the second atom is 0 0 0  by definition.)

  Symmetry information by spglib:
  | Precision set to  0.1E-04
  | Number of Operations  : 1
  | Space group           : 1
  | International         : P1  O
  | Schoenflies           : C1^1
  Input structure read successfully.
  The structure contains       72 atoms,  and a total of        288.000 electrons.

  Input geometry:
  | Unit cell:
  |        8.19000000        0.00000000        0.00000000
  |        0.00000000       12.58800000        0.00000000
  |        0.00000000        0.00000000        6.77300000
  | Atomic structure:
  |       Atom                x [A]            y [A]            z [A]
  |    1: Species C             2.44209420        0.74105556        2.60320255
  |    2: Species C             2.44209420        5.55294444        5.98970255
  |    3: Species C             6.53709420        7.03505556        0.78329745
  |    4: Species C             6.53709420       11.84694444        4.16979745
  |    5: Species C             5.95298340        2.33582928        6.29110105
  |    6: Species C             5.95298340        3.94558272        2.90460105
  |    7: Species C             1.85798340        8.64241728        3.86839895
  |    8: Species C             1.85798340       10.23958272        0.48189895
  |    9: Species C             3.26830140        1.47405480        3.44549283
  |   10: Species C             3.26830140        4.81994520        0.05899283
  |   11: Species C             7.36330140        7.76805480        6.71400717
  |   12: Species C             7.36330140       11.11394520        3.32750717
  |   13: Species C             5.08762800        1.38052596        0.01219140
  |   14: Species C             5.08762800        4.91347404        3.39869140
  |   15: Species C             0.99262800        7.67452596        3.37430860
  |   16: Species C             0.99262800       11.20747404        6.76080860
  |   17: Species C             2.48353560        2.49519336        3.91641952
  |   18: Species C             2.48353560        3.79880664        0.52991952
  |   19: Species C             6.57853560        8.78919336        6.24308048
  |   20: Species C             6.57853560       10.09280664        2.85658048
  |   21: Species C             5.82693930        0.67144392        0.92370174
  |   22: Species C             5.82693930        5.62255608        4.31020174
  |   23: Species C             1.73193930        6.96544392        2.46279826
  |   24: Species C             1.73193930       11.91655608        5.84929826
  |   25: Species H             0.50163750        2.74909332        3.57600854
  |   26: Species H             0.50163750        3.54490668        0.18950854
  |   27: Species H             4.59663750        9.04309332        6.58349146
  |   28: Species H             4.59663750        9.83890668        3.19699146
  |   29: Species H             7.71776460        1.08395268        1.52602463
  |   30: Species H             7.71776460        5.21004732        4.91252463
  |   31: Species H             3.62276460        7.37795268        1.86047537
  |   32: Species H             3.62276460       11.50404732        5.24697537
  |   33: Species H             2.60507520        3.22894788        4.64431383
  |   34: Species H             2.60507520        3.06505212        1.25781383
  |   35: Species H             6.70007520        9.52294788        5.51518617
  |   36: Species H             6.70007520        9.35905212        2.12868617
  |   37: Species H             5.60449890       12.52304592        1.62436859
  |   38: Species H             5.60449890        6.35895408        5.01086859
  |   39: Species H             1.50949890        6.22904592        1.76213141
  |   40: Species H             1.50949890        0.06495408        5.14863141
  |   41: Species H             4.15896390        1.26408696        3.63642370
  |   42: Species H             4.15896390        5.02991304        0.24992370
  |   43: Species H             0.06396390        7.55808696        6.52307630
  |   44: Species H             0.06396390       11.32391304        3.13657630
  |   45: Species H             4.19221530        1.28548656        6.53398083
  |   46: Species H             4.19221530        5.00851344        3.14748083
  |   47: Species H             0.09721530        7.57948656        3.62551917
  |   48: Species H             0.09721530       11.30251344        0.23901917
  |   49: Species H             2.62718820       12.55955112        2.17846772
  |   50: Species H             2.62718820        6.32244888        5.56496772
  |   51: Species H             6.72218820        6.26555112        1.20803228
  |   52: Species H             6.72218820        0.02844888        4.59453228
  |   53: Species H             5.76829890        3.01633656        5.72000169
  |   54: Species H             5.76829890        3.27766344        2.33350169
  |   55: Species H             1.67329890        9.31033656        4.43949831
  |   56: Species H             1.67329890        9.57166344        1.05299831
  |   57: Species N             1.27551060        2.32047192        3.37187032
  |   58: Species N             1.27551060        3.97352808        6.75837032
  |   59: Species N             5.37051060        8.61447192        0.01462968
  |   60: Species N             5.37051060       10.26752808        3.40112968
  |   61: Species N             7.03832220        1.23563808        0.94320798
  |   62: Species N             7.03832220        5.05836192        4.32970798
  |   63: Species N             2.94332220        7.52963808        2.44329202
  |   64: Species N             2.94332220       11.35236192        5.82979202
  |   65: Species N             1.21261140        1.24205796        2.55843302
  |   66: Species N             1.21261140        5.05194204        5.94493302
  |   67: Species N             5.30761140        7.53605796        0.82806698
  |   68: Species N             5.30761140       11.34594204        4.21456698
  |   69: Species N             7.15003380        2.27905740        0.09001317
  |   70: Species N             7.15003380        4.01494260        3.47651317
  |   71: Species N             3.05503380        8.57305740        3.29648683
  |   72: Species N             3.05503380       10.30894260        6.68298683

  Lattice parameters for 3D lattice (in Angstroms) :     8.190000   12.588000    6.773000
  Angle(s) between unit vectors (in degrees)       :    90.000000   90.000000   90.000000


  Quantities derived from the lattice vectors (in Angstrom^-1):
  | Reciprocal lattice vector 1:  0.767178  0.000000  0.000000
  | Reciprocal lattice vector 2:  0.000000  0.499141  0.000000
  | Reciprocal lattice vector 3:  0.000000  0.000000  0.927681
  | Unit cell volume                               :   0.698267E+03  Angstrom^3

  Fractional coordinates:
                         L1                L2                L3
       atom_frac         0.29818000        0.05887000        0.38435000  C
       atom_frac         0.29818000        0.44113000        0.88435000  C
       atom_frac         0.79818000        0.55887000        0.11565000  C
       atom_frac         0.79818000        0.94113000        0.61565000  C
       atom_frac         0.72686000        0.18556000        0.92885000  C
       atom_frac         0.72686000        0.31344000        0.42885000  C
       atom_frac         0.22686000        0.68656000        0.57115000  C
       atom_frac         0.22686000        0.81344000        0.07115000  C
       atom_frac         0.39906000        0.11710000        0.50871000  C
       atom_frac         0.39906000        0.38290000        0.00871000  C
       atom_frac         0.89906000        0.61710000        0.99129000  C
       atom_frac         0.89906000        0.88290000        0.49129000  C
       atom_frac         0.62120000        0.10967000        0.00180000  C
       atom_frac         0.62120000        0.39033000        0.50180000  C
       atom_frac         0.12120000        0.60967000        0.49820000  C
       atom_frac         0.12120000        0.89033000        0.99820000  C
       atom_frac         0.30324000        0.19822000        0.57824000  C
       atom_frac         0.30324000        0.30178000        0.07824000  C
       atom_frac         0.80324000        0.69822000        0.92176000  C
       atom_frac         0.80324000        0.80178000        0.42176000  C
       atom_frac         0.71147000        0.05334000        0.13638000  C
       atom_frac         0.71147000        0.44666000        0.63638000  C
       atom_frac         0.21147000        0.55334000        0.36362000  C
       atom_frac         0.21147000        0.94666000        0.86362000  C
       atom_frac         0.06125000        0.21839000        0.52798000  H
       atom_frac         0.06125000        0.28161000        0.02798000  H
       atom_frac         0.56125000        0.71839000        0.97202000  H
       atom_frac         0.56125000        0.78161000        0.47202000  H
       atom_frac         0.94234000        0.08611000        0.22531000  H
       atom_frac         0.94234000        0.41389000        0.72531000  H
       atom_frac         0.44234000        0.58611000        0.27469000  H
       atom_frac         0.44234000        0.91389000        0.77469000  H
       atom_frac         0.31808000        0.25651000        0.68571000  H
       atom_frac         0.31808000        0.24349000        0.18571000  H
       atom_frac         0.81808000        0.75651000        0.81429000  H
       atom_frac         0.81808000        0.74349000        0.31429000  H
       atom_frac         0.68431000        0.99484000        0.23983000  H
       atom_frac         0.68431000        0.50516000        0.73983000  H
       atom_frac         0.18431000        0.49484000        0.26017000  H
       atom_frac         0.18431000        0.00516000        0.76017000  H
       atom_frac         0.50781000        0.10042000        0.53690000  H
       atom_frac         0.50781000        0.39958000        0.03690000  H
       atom_frac         0.00781000        0.60042000        0.96310000  H
       atom_frac         0.00781000        0.89958000        0.46310000  H
       atom_frac         0.51187000        0.10212000        0.96471000  H
       atom_frac         0.51187000        0.39788000        0.46471000  H
       atom_frac         0.01187000        0.60212000        0.53529000  H
       atom_frac         0.01187000        0.89788000        0.03529000  H
       atom_frac         0.32078000        0.99774000        0.32164000  H
       atom_frac         0.32078000        0.50226000        0.82164000  H
       atom_frac         0.82078000        0.49774000        0.17836000  H
       atom_frac         0.82078000        0.00226000        0.67836000  H
       atom_frac         0.70431000        0.23962000        0.84453000  H
       atom_frac         0.70431000        0.26038000        0.34453000  H
       atom_frac         0.20431000        0.73962000        0.65547000  H
       atom_frac         0.20431000        0.76038000        0.15547000  H
       atom_frac         0.15574000        0.18434000        0.49784000  N
       atom_frac         0.15574000        0.31566000        0.99784000  N
       atom_frac         0.65574000        0.68434000        0.00216000  N
       atom_frac         0.65574000        0.81566000        0.50216000  N
       atom_frac         0.85938000        0.09816000        0.13926000  N
       atom_frac         0.85938000        0.40184000        0.63926000  N
       atom_frac         0.35938000        0.59816000        0.36074000  N
       atom_frac         0.35938000        0.90184000        0.86074000  N
       atom_frac         0.14806000        0.09867000        0.37774000  N
       atom_frac         0.14806000        0.40133000        0.87774000  N
       atom_frac         0.64806000        0.59867000        0.12226000  N
       atom_frac         0.64806000        0.90133000        0.62226000  N
       atom_frac         0.87302000        0.18105000        0.01329000  N
       atom_frac         0.87302000        0.31895000        0.51329000  N
       atom_frac         0.37302000        0.68105000        0.48671000  N
       atom_frac         0.37302000        0.81895000        0.98671000  N

  Slab Identifier: This seems to be a bulk system.
 
  Finished reading input file 'geometry.in'.
 

 
  Consistency checks for stacksize environment parameter are next.
 
  | Maximum stacksize for task 0: unlimited
  | Maximum stacksize for task 1: unlimited
  | Maximum stacksize for task 2: unlimited
  | Maximum stacksize for task 3: unlimited
  | Maximum stacksize for task 4: unlimited
  | Maximum stacksize for task 5: unlimited
  | Maximum stacksize for task 6: unlimited
  | Maximum stacksize for task 7: unlimited
  | Maximum stacksize for task 8: unlimited
  | Maximum stacksize for task 9: unlimited
  | Maximum stacksize for task 10: unlimited
  | Maximum stacksize for task 11: unlimited
  | Maximum stacksize for task 12: unlimited
  | Maximum stacksize for task 13: unlimited
  | Maximum stacksize for task 14: unlimited
  | Maximum stacksize for task 15: unlimited
  | Maximum stacksize for task 16: unlimited
  | Maximum stacksize for task 17: unlimited
  | Maximum stacksize for task 18: unlimited
  | Maximum stacksize for task 19: unlimited
  | Maximum stacksize for task 20: unlimited
  | Maximum stacksize for task 21: unlimited
  | Maximum stacksize for task 22: unlimited
  | Maximum stacksize for task 23: unlimited
  | Maximum stacksize for task 24: unlimited
  | Maximum stacksize for task 25: unlimited
  | Maximum stacksize for task 26: unlimited
  | Maximum stacksize for task 27: unlimited
  | Maximum stacksize for task 28: unlimited
  | Maximum stacksize for task 29: unlimited
  | Maximum stacksize for task 30: unlimited
  | Maximum stacksize for task 31: unlimited
  | Maximum stacksize for task 32: unlimited
  | Maximum stacksize for task 33: unlimited
  | Maximum stacksize for task 34: unlimited
  | Maximum stacksize for task 35: unlimited
  | Maximum stacksize for task 36: unlimited
  | Maximum stacksize for task 37: unlimited
  | Maximum stacksize for task 38: unlimited
  | Maximum stacksize for task 39: unlimited
  | Maximum stacksize for task 40: unlimited
  | Maximum stacksize for task 41: unlimited
  | Maximum stacksize for task 42: unlimited
  | Maximum stacksize for task 43: unlimited
  | Maximum stacksize for task 44: unlimited
  | Maximum stacksize for task 45: unlimited
  | Maximum stacksize for task 46: unlimited
  | Maximum stacksize for task 47: unlimited
  | Maximum stacksize for task 48: unlimited
  | Maximum stacksize for task 49: unlimited
  | Maximum stacksize for task 50: unlimited
  | Maximum stacksize for task 51: unlimited
  | Maximum stacksize for task 52: unlimited
  | Maximum stacksize for task 53: unlimited
  | Maximum stacksize for task 54: unlimited
  | Maximum stacksize for task 55: unlimited
  | Current stacksize for task 0: unlimited
  | Current stacksize for task 1: unlimited
  | Current stacksize for task 2: unlimited
  | Current stacksize for task 3: unlimited
  | Current stacksize for task 4: unlimited
  | Current stacksize for task 5: unlimited
  | Current stacksize for task 6: unlimited
  | Current stacksize for task 7: unlimited
  | Current stacksize for task 8: unlimited
  | Current stacksize for task 9: unlimited
  | Current stacksize for task 10: unlimited
  | Current stacksize for task 11: unlimited
  | Current stacksize for task 12: unlimited
  | Current stacksize for task 13: unlimited
  | Current stacksize for task 14: unlimited
  | Current stacksize for task 15: unlimited
  | Current stacksize for task 16: unlimited
  | Current stacksize for task 17: unlimited
  | Current stacksize for task 18: unlimited
  | Current stacksize for task 19: unlimited
  | Current stacksize for task 20: unlimited
  | Current stacksize for task 21: unlimited
  | Current stacksize for task 22: unlimited
  | Current stacksize for task 23: unlimited
  | Current stacksize for task 24: unlimited
  | Current stacksize for task 25: unlimited
  | Current stacksize for task 26: unlimited
  | Current stacksize for task 27: unlimited
  | Current stacksize for task 28: unlimited
  | Current stacksize for task 29: unlimited
  | Current stacksize for task 30: unlimited
  | Current stacksize for task 31: unlimited
  | Current stacksize for task 32: unlimited
  | Current stacksize for task 33: unlimited
  | Current stacksize for task 34: unlimited
  | Current stacksize for task 35: unlimited
  | Current stacksize for task 36: unlimited
  | Current stacksize for task 37: unlimited
  | Current stacksize for task 38: unlimited
  | Current stacksize for task 39: unlimited
  | Current stacksize for task 40: unlimited
  | Current stacksize for task 41: unlimited
  | Current stacksize for task 42: unlimited
  | Current stacksize for task 43: unlimited
  | Current stacksize for task 44: unlimited
  | Current stacksize for task 45: unlimited
  | Current stacksize for task 46: unlimited
  | Current stacksize for task 47: unlimited
  | Current stacksize for task 48: unlimited
  | Current stacksize for task 49: unlimited
  | Current stacksize for task 50: unlimited
  | Current stacksize for task 51: unlimited
  | Current stacksize for task 52: unlimited
  | Current stacksize for task 53: unlimited
  | Current stacksize for task 54: unlimited
  | Current stacksize for task 55: unlimited
 
  Consistency checks for the contents of control.in are next.
 
  MPI_IN_PLACE appears to work with this MPI implementation.
  | Keeping use_mpi_in_place .true. (see manual).
  Target number of points in a grid batch is not set. Defaulting to  100
  Method for grid partitioning is not set. Defaulting to parallel hash+maxmin partitioning.
  Batch size limit is not set. Defaulting to    200
  By default, will store active basis functions for each batch.
  If in need of memory, prune_basis_once .false. can be used to disable this option.
  communication_type for Hartree potential was not specified.
  Defaulting to calc_hartree .
  Defaulting to Pulay charge density mixer.
  Pulay mixer: Number of relevant iterations not set.
  Defaulting to    8 iterations.
  Pulay mixer: Number of initial linear mixing iterations not set.
  Defaulting to    0 iterations.
  Work space size for distributed Hartree potential not set.
  Defaulting to   0.200000E+03 MB.
  Mixing parameter for charge density mixing has not been set.
  Using default: charge_mix_param =     0.0500.
  The mixing parameter will be adjusted in iteration number     2 of the first full s.c.f. cycle only.
  Algorithm-dependent basis array size parameters:
  | n_max_pulay                         :        8
  Presetting      1001 iterations before the initial mixing cycle
  is restarted anyway using the sc_init_iter criterion / keyword.
  Presetting a factor      1.000 between actual scf density residual
  and density convergence criterion sc_accuracy_rho below which sc_init_iter
  takes no effect.
  Calculation of forces was not defined in control.in. No forces will be calculated.
  Geometry relaxation not requested: no relaxation will be performed.
  No accuracy limit for integral partition fn. given. Defaulting to  0.1000E-14.
  No threshold value for u(r) in integrations given. Defaulting to  0.1000E-05.
  No occupation type (smearing scheme) given. Defaulting to Gaussian broadening, width =  0.1000E-01 eV.
  The width will be adjusted in iteration number     2 of the first full s.c.f. cycle only.
  S.C.F. convergence parameters will be adjusted in iteration number     2 of the first full s.c.f. cycle only.
  No accuracy for occupation numbers given. Defaulting to  0.1000E-12.
  No threshold value for occupation numbers given. Defaulting to  0.0000E+00.
  No accuracy for fermi level given. Defaulting to  0.1000E-19.
  Maximum # of iterations to find E_F not set. Defaulting to  200.
  Preferred method for the eigenvalue solver ('KS_method') not specified in 'control.in'.
  Defaulting to serial version, LAPACK (via ELSI), since more k-points than CPUs available.
  Will not use alltoall communication since running on < 1024 CPUs.
  Threshold for basis singularities not set.
  Default threshold for basis singularities:  0.1000E-04
  partition_type (choice of integration weights) for integrals was not specified.
  | Using a version of the partition function of Stratmann and coworkers ('stratmann_sparse').
  | At each grid point, the set of atoms used to build the partition table is smoothly restricted to
  | only those atoms whose free-atom density would be non-zero at that grid point.
  Partitioning for Hartree potential was not defined. Using partition_type for integrals.
  | Adjusted default value of keyword multip_moments_threshold to:       0.10000000E-11
  | This value may affect high angular momentum components of the Hartree potential in periodic systems.
  No q(lm)/r^(l+1) cutoff set for long-range Hartree potential.
  | Using default value of  0.100000E-09 .
  | Verify using the multipole_threshold keyword.
  Defaulting to new monopole extrapolation.
  Density update method: automatic selection selected.
  Using density matrix based charge density update.
  Using density matrix based charge density update.
  Using packed matrix style: index .
  Defaulting to use time-reversal symmetry for k-point grid.
  Charge integration errors on the 3D integration grid will be compensated
  by explicit normalization and distribution of residual charges.
  Use the "compensate_multipole_errors" flag to change this behaviour.
  Set 'collect_eigenvectors' to be '.true.' for all serial calculations. This is mandatory.
  Set 'collect_eigenvectors' to be '.true.' for KS_method lapack_fast and serial.
  Found potential conflicts with setting 'use_local_index' for this calculation. Will not set it.
 
  Consistency checks for the contents of geometry.in are next.
 

  Range separation radius for Ewald summation (hartree_convergence_parameter):      2.93889007 bohr.
  Number of empty states per atom not set in control.in - providing a guess from actual geometry.
  | Total number of empty states used during s.c.f. cycle:      168
  If you use a very high smearing, use empty_states (per atom!) in control.in to increase this value.

  Structure-dependent array size parameters: 
  | Maximum number of distinct radial functions  :       15
  | Maximum number of basis functions            :      720
  | Number of Kohn-Sham states (occupied + empty):      312
------------------------------------------------------------
  After read_input_data [GB]:   1042.51

  Performing system and environment tests:
  | Environment variable OMP_NUM_THREADS correctly set to 1.
  | Checking for ScaLAPACK...
  | Testing pdtran()...
  | All pdtran() tests passed.
  After prepare_system [GB]:   1042.10

------------------------------------------------------------
          Preparing all fixed parts of the calculation.
------------------------------------------------------------
  Determining machine precision:
    2.225073858507201E-308
  Setting up grids for atomic and cluster calculations.

  Creating wave function, potential, and density for free atoms.
  Runtime choices for atomic solver:
  | atomic solver xc        : PBE
  | compute density gradient: 1
  | compute kinetic density : F

  Species: C

  List of occupied orbitals and eigenvalues:
    n    l              occ      energy [Ha]    energy [eV]
    1    0           2.0000       -10.046810      -273.3876
    2    0           2.0000        -0.503128       -13.6908
    2    1           2.0000        -0.191849        -5.2205


  Species: N

  List of occupied orbitals and eigenvalues:
    n    l              occ      energy [Ha]    energy [eV]
    1    0           2.0000       -14.143973      -384.8771
    2    0           2.0000        -0.682008       -18.5584
    2    1           3.0000        -0.259605        -7.0642


  Species: H

  List of occupied orbitals and eigenvalues:
    n    l              occ      energy [Ha]    energy [eV]
    1    0           1.0000        -0.237593        -6.4652


  Adding cutoff potential to free-atom effective potential.
  Creating fixed part of basis set: Ionic, confined, hydrogenic.
 
  C                    hydrogenic:
 
  List of hydrogenic basis orbitals: 
    n    l      effective z      eigenvalue [eV]  inner max. [A]     outer max. [A]     outer radius [A]   
    2    1         1.700000        -9.7616           1.230570           1.230570           4.607917
    3    2         6.000000       -54.4224           0.792453           0.792453           3.883070
    2    0         4.900000       -81.6679           0.082559           0.562749           3.078220
 
 
  N                    hydrogenic:
 
  List of hydrogenic basis orbitals: 
    n    l      effective z      eigenvalue [eV]  inner max. [A]     outer max. [A]     outer radius [A]   
    2    1         1.800000       -10.9749           1.177451           1.177451           4.573712
    3    2         6.800000       -69.9026           0.704619           0.704619           3.538137
    3    0         5.800000       -50.8545           0.067388           1.191934           4.250239
 
 
  H                    hydrogenic:
 
  List of hydrogenic basis orbitals: 
    n    l      effective z      eigenvalue [eV]  inner max. [A]     outer max. [A]     outer radius [A]   
    2    0         2.100000       -14.9728           0.193243           1.317208           4.583499
    2    1         3.500000       -41.6669           0.602369           0.602369           3.723403
 
  Creating atomic-like basis functions for current effective potential.

  Species C                   :

  List of atomic basis orbitals and eigenvalues:
    n    l      energy [Ha]    energy [eV]    outer radius [A]
    1    0       -10.046810      -273.3876       1.934409
    2    0        -0.503128       -13.6908       4.496620
    2    1        -0.191849        -5.2205       4.551928


  Species N                   :

  List of atomic basis orbitals and eigenvalues:
    n    l      energy [Ha]    energy [eV]    outer radius [A]
    1    0       -14.143973      -384.8771       1.637919
    2    0        -0.682008       -18.5584       4.463241
    2    1        -0.259605        -7.0642       4.518138


  Species H                   :

  List of atomic basis orbitals and eigenvalues:
    n    l      energy [Ha]    energy [eV]    outer radius [A]
    1    0        -0.237593        -6.4652       4.527807

  Assembling full basis from fixed parts.
  | Species C :   atomic orbital   1 s accepted.
  | Species C :    hydro orbital   2 s accepted.
  | Species C :   atomic orbital   2 s accepted.
  | Species C :   atomic orbital   2 p accepted.
  | Species C :    hydro orbital   2 p accepted.
  | Species C :    hydro orbital   3 d accepted.
  | Species N :   atomic orbital   1 s accepted.
  | Species N :    hydro orbital   3 s accepted.
  | Species N :   atomic orbital   2 s accepted.
  | Species N :   atomic orbital   2 p accepted.
  | Species N :    hydro orbital   2 p accepted.
  | Species N :    hydro orbital   3 d accepted.
  | Species H :   atomic orbital   1 s accepted.
  | Species H :    hydro orbital   2 s accepted.
  | Species H :    hydro orbital   2 p accepted.
 
  Basis size parameters after reduction:
  | Total number of radial functions:       15
  | Total number of basis functions :      720
 
  Per-task memory consumption for arrays in subroutine allocate_ext:
  |           4.973844MB.
  Testing on-site integration grid accuracy.
  |  Species  Function  <phi|h_atom|phi> (log., in eV)  <phi|h_atom|phi> (rad., in eV)
           1        1               -273.3876219248               -273.3876203721
           1        2                -10.7204647119                -10.7204634639
           1        3                 17.5782951162                 17.5784424427
           1        4                 -5.2222267983                 -5.2220410825
           1        5                  8.6866956284                  8.6893633739
           1        6                 27.4984676161                 27.4984652796
           2        7               -384.8770852097               -384.8770824231
           2        8                 12.5754985572                 12.5755098789
           2        9                -15.7673946340                -15.7673936923
           2       10                 -7.0647024644                 -7.0646511419
           2       11                  8.8117910312                  8.8136468194
           2       12                 35.9641313274                 35.9641312889
           3       13                 -6.4664147733                 -6.4660167732
           3       14                 13.7099062243                 13.7118588299
           3       15                 25.2661739479                 25.2661606705

  Preparing densities etc. for the partition functions (integrals / Hartree potential).

  Preparations completed.
  max(cpu_time)          :      0.166 s.
  Wall clock time (cpu1) :      0.164 s.
------------------------------------------------------------
  After prepare_scf [GB]:   1031.47

  Initializing index lists of integration centers etc. from given atomic structure:
  Mapping all atomic coordinates to central unit cell.

  Initializing the k-points
  Using symmetry for reducing the k-points
  | k-points reduced from:      512 to      260
  | Number of k-points                             :       260
  The eigenvectors in the calculations are COMPLEX.
  | K-points in task   0:         4
  | K-points in task   1:         5
  | K-points in task   2:         5
  | K-points in task   3:         5
  | K-points in task   4:         5
  | K-points in task   5:         5
  | K-points in task   6:         5
  | K-points in task   7:         5
  | K-points in task   8:         5
  | K-points in task   9:         5
  | K-points in task  10:         5
  | K-points in task  11:         5
  | K-points in task  12:         5
  | K-points in task  13:         5
  | K-points in task  14:         5
  | K-points in task  15:         5
  | K-points in task  16:         5
  | K-points in task  17:         5
  | K-points in task  18:         5
  | K-points in task  19:         5
  | K-points in task  20:         5
  | K-points in task  21:         5
  | K-points in task  22:         5
  | K-points in task  23:         5
  | K-points in task  24:         5
  | K-points in task  25:         5
  | K-points in task  26:         5
  | K-points in task  27:         5
  | K-points in task  28:         5
  | K-points in task  29:         5
  | K-points in task  30:         5
  | K-points in task  31:         5
  | K-points in task  32:         5
  | K-points in task  33:         5
  | K-points in task  34:         5
  | K-points in task  35:         5
  | K-points in task  36:         5
  | K-points in task  37:         4
  | K-points in task  38:         4
  | K-points in task  39:         4
  | K-points in task  40:         4
  | K-points in task  41:         4
  | K-points in task  42:         4
  | K-points in task  43:         4
  | K-points in task  44:         4
  | K-points in task  45:         4
  | K-points in task  46:         4
  | K-points in task  47:         4
  | K-points in task  48:         4
  | K-points in task  49:         4
  | K-points in task  50:         4
  | K-points in task  51:         4
  | K-points in task  52:         4
  | K-points in task  53:         4
  | K-points in task  54:         4
  | K-points in task  55:         4
  | Number of basis functions in the Hamiltonian integrals :      4964
  | Number of basis functions in a single unit cell        :       720
  | Number of centers in hartree potential         :      2431
  | Number of centers in hartree multipole         :      1780
  | Number of centers in electron density summation:      1362
  | Number of centers in basis integrals           :      1446
  | Number of centers in integrals                 :       627
  | Number of centers in hamiltonian               :      1369
  | Consuming        195 KiB for k_phase.
  | Number of super-cells (origin) [n_cells]                     :         245
  | Number of super-cells (after PM_index) [n_cells]             :          48
  | Number of super-cells in hamiltonian [n_cells_in_hamiltonian]:          48
  | Size of matrix packed + index [n_hamiltonian_matrix_size] :      939737
  After initialize_bc_dependent_lists [GB]:   1031.00

------------------------------------------------------------
          Begin self-consistency loop: Initialization.

          Date     :  20240930, Time     :  163435.780
------------------------------------------------------------
  Available memory per node after initialize_hartree_non_periodic_ewald [GB]:   1030.99
  | Estimated reciprocal-space cutoff momentum G_max:         3.58098207 bohr^-1 .
  | Reciprocal lattice points for long-range Hartree potential:    3676
  Available memory per node after initialize_recip_hartree_potential [GB]:   1030.98
  Available memory per node after initialize_scalapack [GB]:   1030.98
  Available memory per node after aims_elsi_init_scf [GB]:   1030.98
  Available memory per node after initialize_fixed_grids [GB]:   1030.96
  Partitioning the integration grid into batches with parallel hashing+maxmin method.
  | Number of batches:    17833
  | Maximal batch size:     126
  | Minimal batch size:      54
  | Average batch size:      71.930
  | Standard deviation of batch sizes:      13.269

  Integration load balanced across    56 MPI tasks.
  Work distribution over tasks is as follows:
  Task     0 has      22911 integration points.
  Task     1 has      22897 integration points.
  Task     2 has      22895 integration points.
  Task     3 has      22916 integration points.
  Task     4 has      22918 integration points.
  Task     5 has      22903 integration points.
  Task     6 has      22905 integration points.
  Task     7 has      22892 integration points.
  Task     8 has      22912 integration points.
  Task     9 has      22891 integration points.
  Task    10 has      22915 integration points.
  Task    11 has      22907 integration points.
  Task    12 has      22928 integration points.
  Task    13 has      22881 integration points.
  Task    14 has      22922 integration points.
  Task    15 has      22894 integration points.
  Task    16 has      22876 integration points.
  Task    17 has      22934 integration points.
  Task    18 has      22912 integration points.
  Task    19 has      22907 integration points.
  Task    20 has      22936 integration points.
  Task    21 has      22904 integration points.
  Task    22 has      22923 integration points.
  Task    23 has      22897 integration points.
  Task    24 has      22910 integration points.
  Task    25 has      22891 integration points.
  Task    26 has      22909 integration points.
  Task    27 has      22900 integration points.
  Task    28 has      22907 integration points.
  Task    29 has      22875 integration points.
  Task    30 has      22900 integration points.
  Task    31 has      22913 integration points.
  Task    32 has      22914 integration points.
  Task    33 has      22920 integration points.
  Task    34 has      22903 integration points.
  Task    35 has      22902 integration points.
  Task    36 has      22896 integration points.
  Task    37 has      22898 integration points.
  Task    38 has      22900 integration points.
  Task    39 has      22909 integration points.
  Task    40 has      22900 integration points.
  Task    41 has      22877 integration points.
  Task    42 has      22903 integration points.
  Task    43 has      22881 integration points.
  Task    44 has      22932 integration points.
  Task    45 has      22929 integration points.
  Task    46 has      22909 integration points.
  Task    47 has      22905 integration points.
  Task    48 has      22925 integration points.
  Task    49 has      22905 integration points.
  Task    50 has      22911 integration points.
  Task    51 has      22897 integration points.
  Task    52 has      22919 integration points.
  Task    53 has      22924 integration points.
  Task    54 has      22901 integration points.
  Task    55 has      22895 integration points.
  Available memory per node after partition_grid [GB]:   1030.43
  Initializing partition tables, free-atom densities, potentials, etc. across the integration grid (initialize_grid_storage).
  | initialize_grid_storage: Actual outermost partition radius vs. multipole_radius_free
  | (-- VB: in principle, multipole_radius_free should be larger, hence this output)
  | Species        1: Confinement radius =              4.999999999999999 AA, multipole_radius_free =              5.019602836301480 AA.
  | Species        1: outer_partition_radius set to              5.019602836301480 AA .
  | Species        2: Confinement radius =              4.999999999999999 AA, multipole_radius_free =              5.043624274424571 AA.
  | Species        2: outer_partition_radius set to              5.043624274424571 AA .
  | Species        3: Confinement radius =              4.999999999999999 AA, multipole_radius_free =              5.054417573612229 AA.
  | Species        3: outer_partition_radius set to              5.054417573612229 AA .
  | The sparse table of interatomic distances needs      15972.89 kbyte instead of     16727.33 kbyte of memory.
  | Net number of integration points:  1282736
  | of which are non-zero points    :   906157
  | Numerical average free-atom electrostatic potential    :     -8.10761825 eV
  Available memory per node after initialize_grid_storage_p1 [GB]:   1030.34
  Renormalizing the initial density to the exact electron count on the 3D integration grid.
  | Initial density: Formal number of electrons (from input files) :     288.0000000000
  | Integrated number of electrons on 3D grid     :     287.9993155914
  | Charge integration error                      :      -0.0006844086
  | Normalization factor for density and gradient :       1.0000023764
  Renormalizing the free-atom superposition density to the exact electron count on the 3D integration grid.
  | Formal number of electrons (from input files) :     288.0000000000
  | Integrated number of electrons on 3D grid     :     287.9993155914
  | Charge integration error                      :      -0.0006844086
  | Normalization factor for density and gradient :       1.0000023764
  Obtaining max. number of non-zero basis functions in each batch (get_n_compute_maxes).
  | Maximal number of non-zero basis functions:      439 in task     0
  | Maximal number of non-zero basis functions:      435 in task     1
  | Maximal number of non-zero basis functions:      446 in task     2
  | Maximal number of non-zero basis functions:      442 in task     3
  | Maximal number of non-zero basis functions:      441 in task     4
  | Maximal number of non-zero basis functions:      443 in task     5
  | Maximal number of non-zero basis functions:      440 in task     6
  | Maximal number of non-zero basis functions:      440 in task     7
  | Maximal number of non-zero basis functions:      434 in task     8
  | Maximal number of non-zero basis functions:      451 in task     9
  | Maximal number of non-zero basis functions:      443 in task    10
  | Maximal number of non-zero basis functions:      439 in task    11
  | Maximal number of non-zero basis functions:      447 in task    12
  | Maximal number of non-zero basis functions:      444 in task    13
  | Maximal number of non-zero basis functions:      440 in task    14
  | Maximal number of non-zero basis functions:      434 in task    15
  | Maximal number of non-zero basis functions:      443 in task    16
  | Maximal number of non-zero basis functions:      435 in task    17
  | Maximal number of non-zero basis functions:      446 in task    18
  | Maximal number of non-zero basis functions:      442 in task    19
  | Maximal number of non-zero basis functions:      443 in task    20
  | Maximal number of non-zero basis functions:      436 in task    21
  | Maximal number of non-zero basis functions:      441 in task    22
  | Maximal number of non-zero basis functions:      445 in task    23
  | Maximal number of non-zero basis functions:      443 in task    24
  | Maximal number of non-zero basis functions:      436 in task    25
  | Maximal number of non-zero basis functions:      443 in task    26
  | Maximal number of non-zero basis functions:      437 in task    27
  | Maximal number of non-zero basis functions:      443 in task    28
  | Maximal number of non-zero basis functions:      443 in task    29
  | Maximal number of non-zero basis functions:      445 in task    30
  | Maximal number of non-zero basis functions:      443 in task    31
  | Maximal number of non-zero basis functions:      436 in task    32
  | Maximal number of non-zero basis functions:      440 in task    33
  | Maximal number of non-zero basis functions:      451 in task    34
  | Maximal number of non-zero basis functions:      444 in task    35
  | Maximal number of non-zero basis functions:      442 in task    36
  | Maximal number of non-zero basis functions:      440 in task    37
  | Maximal number of non-zero basis functions:      436 in task    38
  | Maximal number of non-zero basis functions:      442 in task    39
  | Maximal number of non-zero basis functions:      436 in task    40
  | Maximal number of non-zero basis functions:      443 in task    41
  | Maximal number of non-zero basis functions:      430 in task    42
  | Maximal number of non-zero basis functions:      441 in task    43
  | Maximal number of non-zero basis functions:      443 in task    44
  | Maximal number of non-zero basis functions:      443 in task    45
  | Maximal number of non-zero basis functions:      446 in task    46
  | Maximal number of non-zero basis functions:      435 in task    47
  | Maximal number of non-zero basis functions:      435 in task    48
  | Maximal number of non-zero basis functions:      441 in task    49
  | Maximal number of non-zero basis functions:      441 in task    50
  | Maximal number of non-zero basis functions:      445 in task    51
  | Maximal number of non-zero basis functions:      435 in task    52
  | Maximal number of non-zero basis functions:      448 in task    53
  | Maximal number of non-zero basis functions:      436 in task    54
  | Maximal number of non-zero basis functions:      443 in task    55
  Available memory per node after get_n_compute_maxes_p1 [GB]:   1030.14
  Allocating       13.711 MB for KS_eigenvector_complex
  Available memory per node after allocate_matrices [GB]:   1029.93
  Available memory per node after init_comm_sparse_local_matrix_scalapack [GB]:   1029.92
  Integrating Hamiltonian matrix: batch-based integration.
  Time summed over all CPUs for integration: real work       67.114 s, elapsed       68.056 s
  Available memory per node after integrate hamiltonian matrix [GB]:   1025.72
  Integrating overlap matrix.
  Time summed over all CPUs for integration: real work       56.475 s, elapsed       57.524 s
  Available memory per node after integrate ovlp matrix [GB]:   1023.92
  Available memory per node after ASI_callbacks invoke [GB]:   1023.92
  Available memory per node after save_overlap_scalapack [GB]:   1023.92

  Updating Kohn-Sham eigenvalues and eigenvectors using ELSI and the (modified) LAPACK eigensolver.
  Singularity check in k-point 56, task 0 (analysis for other k-points/tasks may follow below):
  Overlap matrix is not singular
  | Lowest and highest eigenvalues :  0.7728E-03,  0.7504E+01
  Finished singularity check of overlap matrix
  | Time :     0.280 s
  Starting LAPACK eigensolver
  Finished Cholesky decomposition
  | Time :     0.035 s
  Finished transformation to standard eigenproblem
  | Time :     0.067 s
  Finished solving standard eigenproblem
  | Time :     0.175 s
  Finished back-transformation of eigenvectors
  | Time :     0.020 s

  Obtaining occupation numbers and electronic chemical potential using ELSI.
  | Note that, for insulating systems, the printed 'chemical potential' value is not uniquely defined.
  | It can be anywhere in the energy gap, as long as it correctly separates occupied and unoccupied states.
  | In systems with a gap, the physically relevant chemical potential is the VBM or HOMO.

  | Chemical potential (Fermi level):    -7.26523941 eV
  Available memory per node after advance_KS_solution [GB]:   1009.70
  Writing Kohn-Sham eigenvalues.
  K-point:       1 at    0.000000    0.000000    0.000000 (in units of recip. lattice)

  State    Occupation    Eigenvalue [Ha]    Eigenvalue [eV]
      1       2.00000         -14.295338         -388.99594
      2       2.00000         -14.295338         -388.99594
      3       2.00000         -14.295338         -388.99594
      4       2.00000         -14.295338         -388.99594
      5       2.00000         -14.295300         -388.99489
      6       2.00000         -14.295230         -388.99301
      7       2.00000         -14.295230         -388.99301
      8       2.00000         -14.295230         -388.99300
      9       2.00000         -14.231662         -387.26322
     10       2.00000         -14.231662         -387.26322
     11       2.00000         -14.231662         -387.26322
     12       2.00000         -14.231662         -387.26322
     13       2.00000         -14.231473         -387.25808
     14       2.00000         -14.231361         -387.25503
     15       2.00000         -14.231361         -387.25503
     16       2.00000         -14.231361         -387.25503
     17       2.00000         -10.196564         -277.46262
     18       2.00000         -10.196427         -277.45890
     19       2.00000         -10.196427         -277.45889
     20       2.00000         -10.196427         -277.45889
     21       2.00000         -10.196427         -277.45889
     22       2.00000         -10.196331         -277.45629
     23       2.00000         -10.196331         -277.45629
     24       2.00000         -10.196331         -277.45628
     25       2.00000         -10.195337         -277.42923
     26       2.00000         -10.195276         -277.42759
     27       2.00000         -10.195276         -277.42758
     28       2.00000         -10.195276         -277.42758
     29       2.00000         -10.195276         -277.42758
     30       2.00000         -10.195145         -277.42402
     31       2.00000         -10.195145         -277.42402
     32       2.00000         -10.195145         -277.42402
     33       2.00000         -10.169354         -276.72220
     34       2.00000         -10.169346         -276.72197
     35       2.00000         -10.169346         -276.72197
     36       2.00000         -10.169346         -276.72197
     37       2.00000         -10.169346         -276.72197
     38       2.00000         -10.169277         -276.72011
     39       2.00000         -10.169277         -276.72010
     40       2.00000         -10.169277         -276.72010
     41       2.00000          -1.147736          -31.23147
     42       2.00000          -1.147012          -31.21179
     43       2.00000          -1.145410          -31.16818
     44       2.00000          -1.144877          -31.15368
     45       2.00000          -1.144756          -31.15039
     46       2.00000          -1.144305          -31.13812
     47       2.00000          -1.144266          -31.13705
     48       2.00000          -1.144009          -31.13006
     49       2.00000          -0.952790          -25.92672
     50       2.00000          -0.952472          -25.91809
     51       2.00000          -0.951846          -25.90106
     52       2.00000          -0.951381          -25.88839
     53       2.00000          -0.950908          -25.87553
     54       2.00000          -0.950794          -25.87242
     55       2.00000          -0.950189          -25.85595
     56       2.00000          -0.949667          -25.84175
     57       2.00000          -0.919680          -25.02576
     58       2.00000          -0.919041          -25.00839
     59       2.00000          -0.917390          -24.96345
     60       2.00000          -0.916998          -24.95279
     61       2.00000          -0.916312          -24.93412
     62       2.00000          -0.915623          -24.91537
     63       2.00000          -0.914942          -24.89684
     64       2.00000          -0.914055          -24.87270
     65       2.00000          -0.779199          -21.20307
     66       2.00000          -0.778536          -21.18504
     67       2.00000          -0.778093          -21.17298
     68       2.00000          -0.777507          -21.15705
     69       2.00000          -0.777191          -21.14845
     70       2.00000          -0.776524          -21.13030
     71       2.00000          -0.776342          -21.12534
     72       2.00000          -0.775515          -21.10284
     73       2.00000          -0.755802          -20.56642
     74       2.00000          -0.754254          -20.52428
     75       2.00000          -0.754024          -20.51804
     76       2.00000          -0.753646          -20.50776
     77       2.00000          -0.753289          -20.49804
     78       2.00000          -0.752733          -20.48292
     79       2.00000          -0.752379          -20.47328
     80       2.00000          -0.751949          -20.46158
     81       2.00000          -0.689845          -18.77164
     82       2.00000          -0.688340          -18.73070
     83       2.00000          -0.687765          -18.71503
     84       2.00000          -0.686392          -18.67768
     85       2.00000          -0.685866          -18.66337
     86       2.00000          -0.684659          -18.63052
     87       2.00000          -0.682829          -18.58072
     88       2.00000          -0.681642          -18.54842
     89       2.00000          -0.618357          -16.82634
     90       2.00000          -0.617797          -16.81112
     91       2.00000          -0.616304          -16.77048
     92       2.00000          -0.615960          -16.76113
     93       2.00000          -0.615755          -16.75554
     94       2.00000          -0.615531          -16.74946
     95       2.00000          -0.615247          -16.74171
     96       2.00000          -0.614903          -16.73235
     97       2.00000          -0.605296          -16.47093
     98       2.00000          -0.604565          -16.45106
     99       2.00000          -0.604045          -16.43690
    100       2.00000          -0.603285          -16.41621
    101       2.00000          -0.602323          -16.39003
    102       2.00000          -0.602303          -16.38949
    103       2.00000          -0.601819          -16.37632
    104       2.00000          -0.599855          -16.32288
    105       2.00000          -0.578924          -15.75333
    106       2.00000          -0.577806          -15.72291
    107       2.00000          -0.576033          -15.67466
    108       2.00000          -0.574596          -15.63556
    109       2.00000          -0.570078          -15.51261
    110       2.00000          -0.569784          -15.50461
    111       2.00000          -0.569623          -15.50022
    112       2.00000          -0.569445          -15.49539
    113       2.00000          -0.552507          -15.03447
    114       2.00000          -0.550436          -14.97812
    115       2.00000          -0.549894          -14.96338
    116       2.00000          -0.548889          -14.93604
    117       2.00000          -0.545026          -14.83091
    118       2.00000          -0.544376          -14.81324
    119       2.00000          -0.543864          -14.79930
    120       2.00000          -0.543274          -14.78322
    121       2.00000          -0.440769          -11.99392
[...]
   - k =  -0.500  0.167  0.357
   - k =  -0.500  0.167  0.286
   - k =  -0.500  0.167  0.214
   - k =  -0.500  0.167  0.143
   - k =  -0.500  0.167  0.071
   - k =  -0.500  0.167  0.000
   - k =  -0.500  0.167 -0.071
   - k =  -0.500  0.167 -0.143
   - k =  -0.500  0.167 -0.214
   - k =  -0.500  0.167 -0.286
   - k =  -0.500  0.167 -0.357
   - k =  -0.500  0.167 -0.429
   - k =  -0.500  0.167 -0.500

  |-> Computing Wannier center evolution at k-point number:      3

  Treating all   15 k-points in band plot segment #   4:
   Sampling over :
   - k =  -0.500  0.500  0.500
   - k =  -0.500  0.500  0.429
   - k =  -0.500  0.500  0.357
   - k =  -0.500  0.500  0.286
   - k =  -0.500  0.500  0.214
   - k =  -0.500  0.500  0.143
   - k =  -0.500  0.500  0.071
   - k =  -0.500  0.500  0.000
   - k =  -0.500  0.500 -0.071
   - k =  -0.500  0.500 -0.143
   - k =  -0.500  0.500 -0.214
   - k =  -0.500  0.500 -0.286
   - k =  -0.500  0.500 -0.357
   - k =  -0.500  0.500 -0.429
   - k =  -0.500  0.500 -0.500

  |-> Computing Wannier center evolution at k-point number:      4

  Treating all   15 k-points in band plot segment #   5:
   Sampling over :
   - k =  -0.167 -0.500  0.500
   - k =  -0.167 -0.500  0.429
   - k =  -0.167 -0.500  0.357
   - k =  -0.167 -0.500  0.286
   - k =  -0.167 -0.500  0.214
   - k =  -0.167 -0.500  0.143
   - k =  -0.167 -0.500  0.071
   - k =  -0.167 -0.500  0.000
   - k =  -0.167 -0.500 -0.071
   - k =  -0.167 -0.500 -0.143
   - k =  -0.167 -0.500 -0.214
   - k =  -0.167 -0.500 -0.286
   - k =  -0.167 -0.500 -0.357
   - k =  -0.167 -0.500 -0.429
   - k =  -0.167 -0.500 -0.500

  |-> Computing Wannier center evolution at k-point number:      5

  Treating all   15 k-points in band plot segment #   6:
   Sampling over :
   - k =  -0.167 -0.167  0.500
   - k =  -0.167 -0.167  0.429
   - k =  -0.167 -0.167  0.357
   - k =  -0.167 -0.167  0.286
   - k =  -0.167 -0.167  0.214
   - k =  -0.167 -0.167  0.143
   - k =  -0.167 -0.167  0.071
   - k =  -0.167 -0.167  0.000
   - k =  -0.167 -0.167 -0.071
   - k =  -0.167 -0.167 -0.143
   - k =  -0.167 -0.167 -0.214
   - k =  -0.167 -0.167 -0.286
   - k =  -0.167 -0.167 -0.357
   - k =  -0.167 -0.167 -0.429
   - k =  -0.167 -0.167 -0.500

  |-> Computing Wannier center evolution at k-point number:      6

  Treating all   15 k-points in band plot segment #   7:
   Sampling over :
   - k =  -0.167  0.167  0.500
   - k =  -0.167  0.167  0.429
   - k =  -0.167  0.167  0.357
   - k =  -0.167  0.167  0.286
   - k =  -0.167  0.167  0.214
   - k =  -0.167  0.167  0.143
   - k =  -0.167  0.167  0.071
   - k =  -0.167  0.167  0.000
   - k =  -0.167  0.167 -0.071
   - k =  -0.167  0.167 -0.143
   - k =  -0.167  0.167 -0.214
   - k =  -0.167  0.167 -0.286
   - k =  -0.167  0.167 -0.357
   - k =  -0.167  0.167 -0.429
   - k =  -0.167  0.167 -0.500

  |-> Computing Wannier center evolution at k-point number:      7

  Treating all   15 k-points in band plot segment #   8:
   Sampling over :
   - k =  -0.167  0.500  0.500
   - k =  -0.167  0.500  0.429
   - k =  -0.167  0.500  0.357
   - k =  -0.167  0.500  0.286
   - k =  -0.167  0.500  0.214
   - k =  -0.167  0.500  0.143
   - k =  -0.167  0.500  0.071
   - k =  -0.167  0.500  0.000
   - k =  -0.167  0.500 -0.071
   - k =  -0.167  0.500 -0.143
   - k =  -0.167  0.500 -0.214
   - k =  -0.167  0.500 -0.286
   - k =  -0.167  0.500 -0.357
   - k =  -0.167  0.500 -0.429
   - k =  -0.167  0.500 -0.500

  |-> Computing Wannier center evolution at k-point number:      8

  Treating all   15 k-points in band plot segment #   9:
   Sampling over :
   - k =   0.167 -0.500  0.500
   - k =   0.167 -0.500  0.429
   - k =   0.167 -0.500  0.357
   - k =   0.167 -0.500  0.286
   - k =   0.167 -0.500  0.214
   - k =   0.167 -0.500  0.143
   - k =   0.167 -0.500  0.071
   - k =   0.167 -0.500  0.000
   - k =   0.167 -0.500 -0.071
   - k =   0.167 -0.500 -0.143
   - k =   0.167 -0.500 -0.214
   - k =   0.167 -0.500 -0.286
   - k =   0.167 -0.500 -0.357
   - k =   0.167 -0.500 -0.429
   - k =   0.167 -0.500 -0.500

  |-> Computing Wannier center evolution at k-point number:      9

  Treating all   15 k-points in band plot segment #  10:
   Sampling over :
   - k =   0.167 -0.167  0.500
   - k =   0.167 -0.167  0.429
   - k =   0.167 -0.167  0.357
   - k =   0.167 -0.167  0.286
   - k =   0.167 -0.167  0.214
   - k =   0.167 -0.167  0.143
   - k =   0.167 -0.167  0.071
   - k =   0.167 -0.167  0.000
   - k =   0.167 -0.167 -0.071
   - k =   0.167 -0.167 -0.143
   - k =   0.167 -0.167 -0.214
   - k =   0.167 -0.167 -0.286
   - k =   0.167 -0.167 -0.357
   - k =   0.167 -0.167 -0.429
   - k =   0.167 -0.167 -0.500

  |-> Computing Wannier center evolution at k-point number:     10

  Treating all   15 k-points in band plot segment #  11:
   Sampling over :
   - k =   0.167  0.167  0.500
   - k =   0.167  0.167  0.429
   - k =   0.167  0.167  0.357
   - k =   0.167  0.167  0.286
   - k =   0.167  0.167  0.214
   - k =   0.167  0.167  0.143
   - k =   0.167  0.167  0.071
   - k =   0.167  0.167  0.000
   - k =   0.167  0.167 -0.071
   - k =   0.167  0.167 -0.143
   - k =   0.167  0.167 -0.214
   - k =   0.167  0.167 -0.286
   - k =   0.167  0.167 -0.357
   - k =   0.167  0.167 -0.429
   - k =   0.167  0.167 -0.500

  |-> Computing Wannier center evolution at k-point number:     11

  Treating all   15 k-points in band plot segment #  12:
   Sampling over :
   - k =   0.167  0.500  0.500
   - k =   0.167  0.500  0.429
   - k =   0.167  0.500  0.357
   - k =   0.167  0.500  0.286
   - k =   0.167  0.500  0.214
   - k =   0.167  0.500  0.143
   - k =   0.167  0.500  0.071
   - k =   0.167  0.500  0.000
   - k =   0.167  0.500 -0.071
   - k =   0.167  0.500 -0.143
   - k =   0.167  0.500 -0.214
   - k =   0.167  0.500 -0.286
   - k =   0.167  0.500 -0.357
   - k =   0.167  0.500 -0.429
   - k =   0.167  0.500 -0.500

  |-> Computing Wannier center evolution at k-point number:     12

  Treating all   15 k-points in band plot segment #  13:
   Sampling over :
   - k =   0.500 -0.500  0.500
   - k =   0.500 -0.500  0.429
   - k =   0.500 -0.500  0.357
   - k =   0.500 -0.500  0.286
   - k =   0.500 -0.500  0.214
   - k =   0.500 -0.500  0.143
   - k =   0.500 -0.500  0.071
   - k =   0.500 -0.500  0.000
   - k =   0.500 -0.500 -0.071
   - k =   0.500 -0.500 -0.143
   - k =   0.500 -0.500 -0.214
   - k =   0.500 -0.500 -0.286
   - k =   0.500 -0.500 -0.357
   - k =   0.500 -0.500 -0.429
   - k =   0.500 -0.500 -0.500

  |-> Computing Wannier center evolution at k-point number:     13

  Treating all   15 k-points in band plot segment #  14:
   Sampling over :
   - k =   0.500 -0.167  0.500
   - k =   0.500 -0.167  0.429
   - k =   0.500 -0.167  0.357
   - k =   0.500 -0.167  0.286
   - k =   0.500 -0.167  0.214
   - k =   0.500 -0.167  0.143
   - k =   0.500 -0.167  0.071
   - k =   0.500 -0.167  0.000
   - k =   0.500 -0.167 -0.071
   - k =   0.500 -0.167 -0.143
   - k =   0.500 -0.167 -0.214
   - k =   0.500 -0.167 -0.286
   - k =   0.500 -0.167 -0.357
   - k =   0.500 -0.167 -0.429
   - k =   0.500 -0.167 -0.500

  |-> Computing Wannier center evolution at k-point number:     14

  Treating all   15 k-points in band plot segment #  15:
   Sampling over :
   - k =   0.500  0.167  0.500
   - k =   0.500  0.167  0.429
   - k =   0.500  0.167  0.357
   - k =   0.500  0.167  0.286
   - k =   0.500  0.167  0.214
   - k =   0.500  0.167  0.143
   - k =   0.500  0.167  0.071
   - k =   0.500  0.167  0.000
   - k =   0.500  0.167 -0.071
   - k =   0.500  0.167 -0.143
   - k =   0.500  0.167 -0.214
   - k =   0.500  0.167 -0.286
   - k =   0.500  0.167 -0.357
   - k =   0.500  0.167 -0.429
   - k =   0.500  0.167 -0.500

  |-> Computing Wannier center evolution at k-point number:     15

  Treating all   15 k-points in band plot segment #  16:
   Sampling over :
   - k =   0.500  0.500  0.500
   - k =   0.500  0.500  0.429
   - k =   0.500  0.500  0.357
   - k =   0.500  0.500  0.286
   - k =   0.500  0.500  0.214
   - k =   0.500  0.500  0.143
   - k =   0.500  0.500  0.071
   - k =   0.500  0.500  0.000
   - k =   0.500  0.500 -0.071
   - k =   0.500  0.500 -0.143
   - k =   0.500  0.500 -0.214
   - k =   0.500  0.500 -0.286
   - k =   0.500  0.500 -0.357
   - k =   0.500  0.500 -0.429
   - k =   0.500  0.500 -0.500

  |-> Computing Wannier center evolution at k-point number:     16
  *-> Finished with polarization directive nr.   3
  | Evaluation of the polarization for directive nr.     3
   - Ionic      polarization along rec. latt. vec.    3 is:        2.208462E-15 C/m^2
   - Berry term: Preliminary Electronic polarization along rec. latt. vec.    3 is:     -113.303397E-06 C/m^2 before branch-mapping
   --> Detailed listing before/after branch mapping in terms of the polarization quantum P0=     -155.406706E-03 C/m^2
     | k-string    1 :       726.551164E-06 /       726.551164E-06 P0
     | k-string    2 :       726.680087E-06 /       726.680087E-06 P0
     | k-string    3 :       726.694826E-06 /       726.694826E-06 P0
     | k-string    4 :       726.551164E-06 /       726.551164E-06 P0
     | k-string    5 :       736.783426E-06 /       736.783426E-06 P0
     | k-string    6 :       737.104335E-06 /       737.104335E-06 P0
     | k-string    7 :       736.879977E-06 /       736.879977E-06 P0
     | k-string    8 :       736.783426E-06 /       736.783426E-06 P0
     | k-string    9 :       726.402138E-06 /       726.402138E-06 P0
     | k-string   10 :       725.829109E-06 /       725.829109E-06 P0
     | k-string   11 :       726.087074E-06 /       726.087074E-06 P0
     | k-string   12 :       726.402138E-06 /       726.402138E-06 P0
     | k-string   13 :       726.551164E-06 /       726.551164E-06 P0
     | k-string   14 :       726.680087E-06 /       726.680087E-06 P0
     | k-string   15 :       726.694826E-06 /       726.694826E-06 P0
     | k-string   16 :       726.551164E-06 /       726.551164E-06 P0
   - Berry term: Electronic polarization along rec. latt. vec.    3 is:     -113.429837E-06 C/m^2 after branch-mapping

   - Dipole term: Preliminary Electronic polarization along rec. latt. vec.    3 is:     -155.252683E-03 C/m^2 before branch-mapping
   --> Detailed listing before/after branch mapping in terms of the polarization quantum P0=     -155.406706E-03 C/m^2
     | k-string    1 :       999.012140E-03 /      -987.859827E-06 P0
     | k-string    2 :       999.011895E-03 /      -988.104645E-06 P0
     | k-string    3 :       999.011895E-03 /      -988.104645E-06 P0
     | k-string    4 :       999.012140E-03 /      -987.859827E-06 P0
     | k-string    5 :       999.005753E-03 /      -994.247479E-06 P0
     | k-string    6 :       999.005756E-03 /      -994.243501E-06 P0
     | k-string    7 :       999.005933E-03 /      -994.067195E-06 P0
     | k-string    8 :       999.005753E-03 /      -994.247479E-06 P0
     | k-string    9 :       999.005753E-03 /      -994.247479E-06 P0
     | k-string   10 :       999.005933E-03 /      -994.067195E-06 P0
     | k-string   11 :       999.005756E-03 /      -994.243501E-06 P0
     | k-string   12 :       999.005753E-03 /      -994.247479E-06 P0
     | k-string   13 :       999.012140E-03 /      -987.859827E-06 P0
     | k-string   14 :       999.011895E-03 /      -988.104645E-06 P0
     | k-string   15 :       999.011895E-03 /      -988.104645E-06 P0
     | k-string   16 :       999.012140E-03 /      -987.859827E-06 P0
   - Dipole term: Electronic polarization along rec. latt. vec.    3 is:      154.183922E-06 C/m^2 after branch-mapping



  Wannier center evolution                                :  max(cpu_time) wall_clock(cpu1)
  | Total Time                                            :         37.463           37.520
------------------------------------------------------------

  Summary for all Polarization Directives:

  * Ionic Polarization along rec. latt. vecs. is (C/m^2):       -64.486564E-03       -1.732992E-03        2.208462E-15
  * Electronic Contributions:
    Summarizing all directives:
    - Directive    1 in direction of rec. latt. vec.  1 yields the electronic polarization (Berry term):          62.823267E-03 (C/m^2)
    - Directive    2 in direction of rec. latt. vec.  2 yields the electronic polarization (Berry term):           1.803418E-03 (C/m^2)
    - Directive    3 in direction of rec. latt. vec.  3 yields the electronic polarization (Berry term):        -113.429837E-06 (C/m^2)
    - Directive    1 in direction of rec. latt. vec.  1 yields the electronic polarization (Dipole term):         -3.229939E-03 (C/m^2)
    - Directive    2 in direction of rec. latt. vec.  2 yields the electronic polarization (Dipole term):        -91.421563E-06 (C/m^2)
    - Directive    3 in direction of rec. latt. vec.  3 yields the electronic polarization (Dipole term):        154.183922E-06 (C/m^2)
  * Full Polarizations (Electron + Ions):
    Summarizing all directives:
    - Directive    1 in direction of rec. latt. vec.  1 yields the full polarization      :        -4.893236E-03 (C/m^2)
    - Directive    2 in direction of rec. latt. vec.  2 yields the full polarization      :       -20.996130E-06 (C/m^2)
    - Directive    3 in direction of rec. latt. vec.  3 yields the full polarization      :        40.754085E-06 (C/m^2)
  | Cartesian Polarization                   -4.893236E-03        -20.996130E-06         40.754085E-06

------------------------------------------------------------


------------------------------------------------------------------------------
  Final output of selected total energy values:

  The following output summarizes some interesting total energy values
  at the end of a run (AFTER all relaxation, molecular dynamics, etc.).

  | Total energy of the DFT / Hartree-Fock s.c.f. calculation      :         -49228.312420584 eV
  | Final zero-broadening corrected energy (caution - metals only) :         -49228.312420584 eV
  | For reference only, the value of 1 Hartree used in FHI-aims is :             27.211384500 eV
  | For reference only, the overall average (free atom contribution
  | + realspace contribution) of the electrostatic potential after
  | s.c.f. convergence is                                          :             -7.497250256 eV

  Before relying on these values, please be sure to understand exactly which
  total energy value is referred to by a given number. Different objects may
  all carry the same name 'total energy'. Definitions:

  Total energy of the DFT / Hartree-Fock s.c.f. calculation:
  | Note that this energy does not include ANY quantities calculated after the
  | s.c.f. cycle, in particular not ANY RPA, MP2, etc. many-body perturbation terms.

  Final zero-broadening corrected energy:
  | For metallic systems only, a broadening of the occupation numbers at the Fermi
  | level can be extrapolated back to zero broadening by an electron-gas inspired
  | formula. For all systems that are not real metals, this value can be
  | meaningless and should be avoided.

------------------------------------------------------------------------------
  Methods described in the following list of references were used in this FHI-aims run.
  If you publish the results, please make sure to cite these reference if they apply.
  FHI-aims is an academic code, and for our developers (often, Ph.D. students
  and postdocs), scientific credit in the community is essential.
  Thank you for helping us!

  For any use of FHI-aims, please cite:

    Volker Blum, Ralf Gehrke, Felix Hanke, Paula Havu, Ville Havu,
    Xinguo Ren, Karsten Reuter, and Matthias Scheffler
    'Ab initio molecular simulations with numeric atom-centered orbitals'
    Computer Physics Communications 180, 2175-2196 (2009)
    http://doi.org/10.1016/j.cpc.2009.06.022


  The provided symmetry information was generated with SPGlib:

    Atsushi Togo, Yusuke Seto, Dimitar Pashov
    SPGlib 1.7.3 obtained from http://spglib.sourceforge.net
    Licence: New BSD license
    Copyright (C) 2008 Atsushi Togo


  The ELSI infrastructure was used in your run to solve the Kohn-Sham electronic structure.
  Please check out https://wordpress.elsi-interchange.org to learn more.
  If scalability is important for your project, please acknowledge ELSI by citing:

    V. W-z. Yu, F. Corsetti, A. Garcia, W. P. Huhn, M. Jacquelin, W. Jia,
    B. Lange, L. Lin, J. Lu, W. Mi, A. Seifitokaldani, A. Vazquez-Mayagoitia,
    C. Yang, H. Yang, and V. Blum
    'ELSI: A unified software interface for Kohn-Sham electronic structure solvers'
    Computer Physics Communications 222, 267-285 (2018).
    http://doi.org/10.1016/j.cpc.2017.09.007


  For the real-space grid partitioning and parallelization used in this calculation, please cite:

    Ville Havu, Volker Blum, Paula Havu, and Matthias Scheffler,
    'Efficient O(N) integration for all-electron electronic structure calculation'
    'using numerically tabulated basis functions'
    Journal of Computational Physics 228, 8367-8379 (2009).
    http://doi.org/10.1016/j.jcp.2009.08.008

  Of course, there are many other important community references, e.g., those cited in the
  above references. Our list is limited to references that describe implementations in the
  FHI-aims code. The reason is purely practical (length of this list) - please credit others as well.

------------------------------------------------------------
          Leaving FHI-aims.
          Date     :  20240930, Time     :  163828.828

          Computational steps:
          | Number of self-consistency cycles          :           18
          | Number of SCF (re)initializations          :            1

          Detailed time accounting                     :  max(cpu_time)    wall_clock(cpu1)
          | Total time                                  :      233.270 s         233.315 s
          | Preparation time                            :        0.166 s           0.164 s
          | Boundary condition initalization            :        0.052 s           0.052 s
          | Grid partitioning                           :        0.479 s           0.479 s
          | Preloading free-atom quantities on grid     :        1.457 s           1.457 s
          | Free-atom superposition energy              :        0.176 s           0.176 s
          | Total time for integrations                 :       24.243 s          24.248 s
          | Total time for solution of K.-S. equations  :       37.355 s          37.370 s
          | Total time for density update               :       43.624 s          43.633 s
          | Total time for mixing                       :        0.241 s           0.236 s
          | Total time for Hartree multipole update     :        0.441 s           0.450 s
          | Total time for Hartree multipole sum        :       12.096 s          12.099 s
          | Total time for total energy evaluation      :        0.005 s           0.008 s
          | Total time for scaled ZORA corrections      :        0.000 s           0.000 s
          | Total time for Wannier Center Evolution     :      112.764 s         112.774 s

          Partial memory accounting:
          | Residual value for overall tracked memory usage across tasks:     0.000000 MB (should be 0.000000 MB)
          | Peak values for overall tracked memory usage:
          |   Minimum:       76.169 MB (on task 41 after allocating eval_tmp)
          |   Maximum:       84.337 MB (on task 12 after allocating eval_tmp)
          |   Average:       79.651 MB
          | Largest tracked array allocation:
          |   Minimum:       13.711 MB (KS_eigenvector_complex on task  0)
          |   Maximum:       17.139 MB (KS_eigenvector_complex on task  1)
          |   Average:       15.914 MB
          Note:  These values currently only include a subset of arrays which are explicitly tracked.
          The "true" memory usage will be greater.

          Have a nice day.
------------------------------------------------------------
