------------------------------------------------------------
          Invoking FHI-aims ...

          When using FHI-aims, please cite the following reference:

            Volker Blum, Ralf Gehrke, Felix Hanke, Paula Havu,
            Ville Havu, Xinguo Ren, Karsten Reuter, and Matthias Scheffler,
            'Ab Initio Molecular Simulations with Numeric Atom-Centered Orbitals',
            Computer Physics Communications 180, 2175-2196 (2009)

          In addition, many other developments in FHI-aims are likely important for
          your particular application. If so, please cite them. A partial list of references
          is written at the end of this file. Thank you for giving credit to the authors
          of these developments.

          For general information about FHI-aims please find us at

            https://fhi-aims.org

          Online tutorials can be found at

            https://fhi-aims-club.gitlab.io/tutorials/tutorials-overview/

          For any questions about FHI-aims, please visit our slack channel at

            https://fhi-aims.slack.com

          and our main development and support site at

            https://aims-git.rz-berlin.mpg.de .

          The latter site, in particular, has a wiki to collect information, as well
          as an issue tracker to log discussions, suggest improvements, and report issues
          or bugs. https://aims-git.rz-berlin.mpg.de is also the main development site
          of the project and all new and updated code versions can be obtained there.
          Please send an email to aims-coordinators@fhi-berlin.mpg.de and we will add
          you to these sites. They are for you and everyone is welcome there.

------------------------------------------------------------



  Date     :  20240930, Time     :  151149.724
  Time zero on CPU 1             :   0.146781000000000E+00  s.
  Internal wall clock time zero  :           496941109.724  s.

  FHI-aims created a unique identifier for this run for later identification
  aims_uuid : 26F3A38C-B255-4193-A106-B2395217B60C

  Build configuration of the current instance of FHI-aims
  -------------------------------------------------------
  FHI-aims version      : 240507
  Commit number         : 189b292af
  CMake host system     : Linux-6.7.12-amd64
  CMake version         : 3.29.6
  Fortran compiler      : /opt/software/openmpi-4.1.6_intel/bin/mpif90 (Intel) version 2021.8.0.20221119
  Fortran compiler flags: -O3 -march=core-avx2 -fma -ftz -align array64byte -fomit-frame-pointer
  C compiler            : /usr/bin/cc (GNU) version 13.2.0
  C compiler flags      : -Ofast
  C++ compiler          : /usr/bin/g++ (GNU) version 13.2.0
  C++ compiler flags    : -Ofast
  HIP compiler          :
  HIP compiler flags    :
  HIP GPU arch          :
  Using MPI
  Using ScaLAPACK
  Using LibXC
  Using i-PI
  Using RLSY
  Linking against: /opt/software/intel/oneapi/mkl/2023.0.0/lib/intel64/libmkl_intel_lp64.so
                   /opt/software/intel/oneapi/mkl/2023.0.0/lib/intel64/libmkl_sequential.so
                   /opt/software/intel/oneapi/mkl/2023.0.0/lib/intel64/libmkl_core.so
                   /opt/software/intel/oneapi/mkl/2023.0.0/lib/intel64/libmkl_scalapack_lp64.so
                   /opt/software/intel/oneapi/mkl/2023.0.0/lib/intel64/libmkl_blacs_openmpi_lp64.so

  Using      108 parallel tasks.
  Task        0 on host h08 reporting.
  Task        1 on host h08 reporting.
  Task        2 on host h08 reporting.
  Task        3 on host h08 reporting.
  Task        4 on host h08 reporting.
  Task        5 on host h08 reporting.
  Task        6 on host h08 reporting.
  Task        7 on host h08 reporting.
  Task        8 on host h08 reporting.
  Task        9 on host h08 reporting.
  Task       10 on host h08 reporting.
  Task       11 on host h08 reporting.
  Task       12 on host h08 reporting.
  Task       13 on host h08 reporting.
  Task       14 on host h08 reporting.
  Task       15 on host h08 reporting.
  Task       16 on host h08 reporting.
  Task       17 on host h08 reporting.
  Task       18 on host h08 reporting.
  Task       19 on host h08 reporting.
  Task       20 on host h08 reporting.
  Task       21 on host h08 reporting.
  Task       22 on host h08 reporting.
  Task       23 on host h08 reporting.
  Task       24 on host h08 reporting.
  Task       25 on host h08 reporting.
  Task       26 on host h08 reporting.
  Task       27 on host h08 reporting.
  Task       28 on host h08 reporting.
  Task       29 on host h08 reporting.
  Task       30 on host h08 reporting.
  Task       31 on host h08 reporting.
  Task       32 on host h08 reporting.
  Task       33 on host h08 reporting.
  Task       34 on host h08 reporting.
  Task       35 on host h08 reporting.
  Task       36 on host h08 reporting.
  Task       37 on host h08 reporting.
  Task       38 on host h08 reporting.
  Task       39 on host h08 reporting.
  Task       40 on host h08 reporting.
  Task       41 on host h08 reporting.
  Task       42 on host h08 reporting.
  Task       43 on host h08 reporting.
  Task       44 on host h08 reporting.
  Task       45 on host h08 reporting.
  Task       46 on host h08 reporting.
  Task       47 on host h08 reporting.
  Task       48 on host h08 reporting.
  Task       49 on host h08 reporting.
  Task       50 on host h08 reporting.
  Task       51 on host h08 reporting.
  Task       52 on host h08 reporting.
  Task       53 on host h08 reporting.
  Task       54 on host h08 reporting.
  Task       55 on host h08 reporting.
  Task       56 on host h08 reporting.
  Task       57 on host h08 reporting.
  Task       58 on host h08 reporting.
  Task       59 on host h08 reporting.
  Task       60 on host h08 reporting.
  Task       61 on host h08 reporting.
  Task       62 on host h08 reporting.
  Task       63 on host h08 reporting.
  Task       64 on host h08 reporting.
  Task       65 on host h08 reporting.
  Task       66 on host h08 reporting.
  Task       67 on host h08 reporting.
  Task       68 on host h08 reporting.
  Task       69 on host h08 reporting.
  Task       70 on host h08 reporting.
  Task       71 on host h08 reporting.
  Task       72 on host h08 reporting.
  Task       73 on host h08 reporting.
  Task       74 on host h08 reporting.
  Task       75 on host h08 reporting.
  Task       76 on host h08 reporting.
  Task       77 on host h08 reporting.
  Task       78 on host h08 reporting.
  Task       79 on host h08 reporting.
  Task       80 on host h08 reporting.
  Task       81 on host h08 reporting.
  Task       82 on host h08 reporting.
  Task       83 on host h08 reporting.
  Task       84 on host h08 reporting.
  Task       85 on host h08 reporting.
  Task       86 on host h08 reporting.
  Task       87 on host h08 reporting.
  Task       88 on host h08 reporting.
  Task       89 on host h08 reporting.
  Task       90 on host h08 reporting.
  Task       91 on host h08 reporting.
  Task       92 on host h08 reporting.
  Task       93 on host h08 reporting.
  Task       94 on host h08 reporting.
  Task       95 on host h08 reporting.
  Task       96 on host h08 reporting.
  Task       97 on host h08 reporting.
  Task       98 on host h08 reporting.
  Task       99 on host h08 reporting.
  Task      100 on host h08 reporting.
  Task      101 on host h08 reporting.
  Task      102 on host h08 reporting.
  Task      103 on host h08 reporting.
  Task      104 on host h08 reporting.
  Task      105 on host h08 reporting.
  Task      106 on host h08 reporting.
  Task      107 on host h08 reporting.

  Memory overcommitment is allowed on your operating system.

  Obtaining array dimensions for all initial allocations:
  
  -----------------------------------------------------------------------
  Parsing control.in (first pass over file, find array dimensions only).
  The contents of control.in will be repeated verbatim below
  unless switched off by setting 'verbatim_writeout .false.' .
  in the first line of control.in .
  -----------------------------------------------------------------------
  
  # Physical  settings
  xc                 pbe
  spin               none
  relativistic       atomic_zora scalar
  ## SCF  settings
  sc_accuracy_rho     1E-6
  sc_iter_limit        100
  k_grid   8 8 8
  DFPT dielectric
  
  
  ################################################################################
  #
  #  FHI-aims code project
  #  VB, Fritz-Haber Institut, 2009
  #
  #  Suggested "light" defaults for Mg atom (to be pasted into control.in file)
  #  Be sure to double-check any results obtained with these settings for post-processing,
  #  e.g., with the "tight" defaults and larger basis sets.
  #
  ################################################################################
  species        Mg
  #     global species definitions
  nucleus             12
  mass                24.3050
  #
  l_hartree           4
  #
  cut_pot             4.0          1.5  1.0
  basis_dep_cutoff    1e-4
  #
  radial_base         40 5.5
  radial_multiplier   1
  angular_grids       specified
  division   0.7029   50
  division   0.9689  110
  division   1.1879  194
  division   1.3129  302
  #      division   1.4867  434
  #      division   1.6018  590
  #      division   1.8611  770
  #      division   1.9576  974
  #      division   2.2261 1202
  #      outer_grid   974
  outer_grid   302
  ################################################################################
  #
  #  Definition of "minimal" basis
  #
  ################################################################################
  #     valence basis states
  valence      3  s   2.
  valence      2  p   6.
  #     ion occupancy
  ion_occ      2  s   2.
  ion_occ      2  p   6.
  ################################################################################
  #
  #  Suggested additional basis functions. For production calculations,
  #  uncomment them one after another (the most important basis functions are
  #  listed first).
  #
  #  Constructed for dimers: 2.125 A, 2.375 A, 2.875 A, 3.375 A, 4.5 A
  #
  ################################################################################
  #  "First tier" - improvements: -230.76 meV to -21.94 meV
  hydro 2 p 1.5
  ionic 3 d auto
  hydro 3 s 2.4
  #  "Second tier" - improvements: -5.43 meV to -1.64 meV
  #     hydro 4 f 4.3
  #     hydro 2 p 3.4
  #     hydro 4 s 11.2
  #     hydro 3 d 6.2
  #  "Third tier" - improvements: -0.92 meV to -0.22 meV
  #     hydro 2 s 0.6
  #     hydro 3 p 4.8
  #     hydro 4 f 7.4
  #     hydro 5 g 6.6
  #     hydro 2 p 1.6
  #     hydro 3 d 1.8
  #  "Fourth tier" - improvements: -0.09 meV to -0.05 meV
  #     hydro 4 p 0.45
  #     hydro 5 g 10.4
  #     hydro 2 s 12.4
  #     hydro 4 d 1.7
  ################################################################################
  #
  #  FHI-aims code project
  #  VB, Fritz-Haber Institut, 2009
  #
  #  Suggested "light" defaults for O atom (to be pasted into control.in file)
  #  Be sure to double-check any results obtained with these settings for post-processing,
  #  e.g., with the "tight" defaults and larger basis sets.
  #
  ################################################################################
  species        O
  #     global species definitions
  nucleus             8
  mass                15.9994
  #
  l_hartree           4
  #
  cut_pot             3.5  1.5  1.0
  basis_dep_cutoff    1e-4
  #
  radial_base         36 5.0
  radial_multiplier   1
  angular_grids specified
  division   0.2659   50
  division   0.4451  110
  division   0.6052  194
  division   0.7543  302
  #      division   0.8014  434
  #      division   0.8507  590
  #      division   0.8762  770
  #      division   0.9023  974
  #      division   1.2339 1202
  #      outer_grid 974
  outer_grid 302
  ################################################################################
  #
  #  Definition of "minimal" basis
  #
  ################################################################################
  #     valence basis states
  valence      2  s   2.
  valence      2  p   4.
  #     ion occupancy
  ion_occ      2  s   1.
  ion_occ      2  p   3.
  ################################################################################
  #
  #  Suggested additional basis functions. For production calculations,
  #  uncomment them one after another (the most important basis functions are
  #  listed first).
  #
  #  Constructed for dimers: 1.0 A, 1.208 A, 1.5 A, 2.0 A, 3.0 A
  #
  ################################################################################
  #  "First tier" - improvements: -699.05 meV to -159.38 meV
  hydro 2 p 1.8
  hydro 3 d 7.6
  hydro 3 s 6.4
  #  "Second tier" - improvements: -49.91 meV to -5.39 meV
  #     hydro 4 f 11.6
  #     hydro 3 p 6.2
  #     hydro 3 d 5.6
  #     hydro 5 g 17.6
  #     hydro 1 s 0.75
  #  "Third tier" - improvements: -2.83 meV to -0.50 meV
  #     ionic 2 p auto
  #     hydro 4 f 10.8
  #     hydro 4 d 4.7
  #     hydro 2 s 6.8
  #  "Fourth tier" - improvements: -0.40 meV to -0.12 meV
  #     hydro 3 p 5
  #     hydro 3 s 3.3
  #     hydro 5 g 15.6
  #     hydro 4 f 17.6
  #     hydro 4 d 14
  # Further basis functions - -0.08 meV and below
  #     hydro 3 s 2.1
  #     hydro 4 d 11.6
  #     hydro 3 p 16
  #     hydro 2 s 17.2
  
  -----------------------------------------------------------------------
  Completed first pass over input file control.in .
  -----------------------------------------------------------------------
  
  
  -----------------------------------------------------------------------
  Parsing geometry.in (first pass over file, find array dimensions only).
  The contents of geometry.in will be repeated verbatim below
  unless switched off by setting 'verbatim_writeout .false.' .
  in the first line of geometry.in .
  -----------------------------------------------------------------------
  
  ## FHIaims input file generated by critic2.
  lattice_vector      4.26174121      0.00000000      0.00000000
  lattice_vector      0.00000000      4.26173987     -0.00000000
  lattice_vector      0.00000000     -0.00000000      4.26173987
  atom_frac       0.00000000      0.00000000     -0.00000001 Mg
  atom_frac       0.00000000      0.49999999      0.50000001 Mg
  atom_frac       0.50000000      0.00000001      0.50000001 Mg
  atom_frac       0.50000000      0.49999999     -0.00000001 Mg
  atom_frac       0.50000000      0.50000001      0.49999999 O
  atom_frac       0.50000000     -0.00000001      0.00000001 O
  atom_frac      -0.00000000      0.50000000      0.00000001 O
  atom_frac      -0.00000000     -0.00000001      0.49999999 O
  
  -----------------------------------------------------------------------
  Completed first pass over input file geometry.in .
  -----------------------------------------------------------------------
  

  Basic array size parameters:
  | Number of species                 :        2
  | Number of atoms                   :        8
  | Number of lattice vectors         :        3
  | Max. basis fn. angular momentum   :        2
  | Max. atomic/ionic basis occupied n:        3
  | Max. number of basis fn. types    :        3
  | Max. radial fns per species/type  :        4
  | Max. logarithmic grid size        :     1334
  | Max. radial integration grid size :       40
  | Max. angular integration grid size:      302
  | Max. angular grid division number :        8
  | Radial grid for Hartree potential :     1334
  | Number of spin channels           :        1

------------------------------------------------------------
          Reading file control.in.
------------------------------------------------------------
  XC: Using PBE gradient-corrected functionals.
  Spin treatment: No spin polarisation.
  Scalar relativistic treatment of kinetic energy: on-site free-atom approximation to ZORA.
  Convergence accuracy of self-consistent charge density:  0.1000E-05
  Maximum number of s.-c. iterations  :   100
  Found k-point grid:         8         8         8
  DFPT calculation will begin after the DFT/HF calculation.
 
  Reading configuration options for species Mg                  .
  | Found nuclear charge :  12.0000
  | Found atomic mass :    24.3050000000000      amu
  | Found l_max for Hartree potential  :   4
  | Found cutoff potl. onset [A], width [A], scale factor :    4.00000    1.50000    1.00000
  | Threshold for basis-dependent cutoff potential is   0.100000E-03
  | Found data for basic radial integration grid :    40 points, outermost radius =    5.500 A
  | Found multiplier for basic radial grid :   1
  | Found angular grid specification: user-specified.
  | Specified grid contains     5 separate shells.
  | Check grid settings after all constraints further below.
  | Found free-atom valence shell :  3 s   2.000
  | Found free-atom valence shell :  2 p   6.000
  | Found free-ion valence shell :  2 s   2.000
  | Found free-ion valence shell :  2 p   6.000
  | Found hydrogenic basis function :  2 p   1.500
  | Found ionic basis function :  3 d , default cutoff radius.
  | Found hydrogenic basis function :  3 s   2.400
 | Encountered keyword species, ending the description of species Mg                  .
  Species Mg                  : Missing cutoff potential type.
  Defaulting to exp(1/x)/(1-x)^2 type cutoff potential.
  Species Mg: No 'logarithmic' tag. Using default grid for free atom:
  | Default logarithmic grid data [bohr] : 0.1000E-03 0.1000E+03 0.1012E+01
  | Will include ionic basis functions of  2.0-fold positive Mg                   ion.
  Species Mg: On-site basis accuracy parameter (for Gram-Schmidt orthonormalisation) not specified.
  Using default value basis_acc =  0.1000000E-03.
  Species Mg                  : Using default innermost maximum threshold i_radial=  2 for radial functions.
  Species Mg                  : Default cutoff onset for free atom density etc. : 0.40000000E+01 AA.
  Species Mg                  : Basic radial grid will be enhanced according to radial_multiplier =   1, to contain    40 grid points.
 
  Reading configuration options for species O                   .
  | Found nuclear charge :   8.0000
  | Found atomic mass :    15.9994000000000      amu
  | Found l_max for Hartree potential  :   4
  | Found cutoff potl. onset [A], width [A], scale factor :    3.50000    1.50000    1.00000
  | Threshold for basis-dependent cutoff potential is   0.100000E-03
  | Found data for basic radial integration grid :    36 points, outermost radius =    5.000 A
  | Found multiplier for basic radial grid :   1
  | Found angular grid specification: user-specified.
  | Specified grid contains     5 separate shells.
  | Check grid settings after all constraints further below.
  | Found free-atom valence shell :  2 s   2.000
  | Found free-atom valence shell :  2 p   4.000
  | Found free-ion valence shell :  2 s   1.000
  | Found free-ion valence shell :  2 p   3.000
  | Found hydrogenic basis function :  2 p   1.800
  | Found hydrogenic basis function :  3 d   7.600
  | Found hydrogenic basis function :  3 s   6.400
  Species O                   : Missing cutoff potential type.
  Defaulting to exp(1/x)/(1-x)^2 type cutoff potential.
  Species O : No 'logarithmic' tag. Using default grid for free atom:
  | Default logarithmic grid data [bohr] : 0.1000E-03 0.1000E+03 0.1012E+01
  Species O : On-site basis accuracy parameter (for Gram-Schmidt orthonormalisation) not specified.
  Using default value basis_acc =  0.1000000E-03.
  Species O                   : Using default innermost maximum threshold i_radial=  2 for radial functions.
  Species O                   : Default cutoff onset for free atom density etc. : 0.35000000E+01 AA.
  Species O                   : Basic radial grid will be enhanced according to radial_multiplier =   1, to contain    36 grid points.
 
  Finished reading input file 'control.in'.
 
------------------------------------------------------------


------------------------------------------------------------
          Reading geometry description geometry.in.
------------------------------------------------------------
  | The smallest distance between any two atoms is         2.13086994 AA.
  | The first atom of this pair is atom number                      1 .
  | The second atom of this pair is atom number                     8 .
  | Wigner-Seitz cell of the first atom image           0     0     0 .
  | (The Wigner-Seitz cell of the second atom is 0 0 0  by definition.)

  Symmetry information by spglib:
  | Precision set to  0.1E-04
  | Number of Operations  : 192
  | Space group           : 225
  | International         : Fm-3m
  | Schoenflies           : Oh^5
  Input structure read successfully.
  The structure contains        8 atoms,  and a total of         80.000 electrons.

  Input geometry:
  | Unit cell:
  |        4.26174121        0.00000000        0.00000000
  |        0.00000000        4.26173987        0.00000000
  |        0.00000000        0.00000000        4.26173987
  | Atomic structure:
  |       Atom                x [A]            y [A]            z [A]
  |    1: Species Mg            0.00000000        0.00000000       -0.00000004
  |    2: Species Mg            0.00000000        2.13086989        2.13086998
  |    3: Species Mg            2.13087061        0.00000004        2.13086998
  |    4: Species Mg            2.13087061        2.13086989       -0.00000004
  |    5: Species O             2.13087061        2.13086998        2.13086989
  |    6: Species O             2.13087061       -0.00000004        0.00000004
  |    7: Species O             0.00000000        2.13086994        0.00000004
  |    8: Species O             0.00000000       -0.00000004        2.13086989

  Lattice parameters for 3D lattice (in Angstroms) :     4.261741    4.261740    4.261740
  Angle(s) between unit vectors (in degrees)       :    90.000000   90.000000   90.000000


  Quantities derived from the lattice vectors (in Angstrom^-1):
  | Reciprocal lattice vector 1:  1.474324  0.000000  0.000000
  | Reciprocal lattice vector 2:  0.000000  1.474324  0.000000
  | Reciprocal lattice vector 3:  0.000000  0.000000  1.474324
  | Unit cell volume                               :   0.774036E+02  Angstrom^3

  Fractional coordinates:
                         L1                L2                L3
       atom_frac         0.00000000        0.00000000       -0.00000001  Mg
       atom_frac         0.00000000        0.49999999        0.50000001  Mg
       atom_frac         0.50000000        0.00000001        0.50000001  Mg
       atom_frac         0.50000000        0.49999999       -0.00000001  Mg
       atom_frac         0.50000000        0.50000001        0.49999999  O
       atom_frac         0.50000000       -0.00000001        0.00000001  O
       atom_frac         0.00000000        0.50000000        0.00000001  O
       atom_frac         0.00000000       -0.00000001        0.49999999  O

  Slab Identifier: This seems to be a bulk system.
 
  Finished reading input file 'geometry.in'.
 

 
  Consistency checks for stacksize environment parameter are next.
 
  | Maximum stacksize for task 0: unlimited
  | Maximum stacksize for task 1: unlimited
  | Maximum stacksize for task 2: unlimited
  | Maximum stacksize for task 3: unlimited
  | Maximum stacksize for task 4: unlimited
  | Maximum stacksize for task 5: unlimited
  | Maximum stacksize for task 6: unlimited
  | Maximum stacksize for task 7: unlimited
  | Maximum stacksize for task 8: unlimited
  | Maximum stacksize for task 9: unlimited
  | Maximum stacksize for task 10: unlimited
  | Maximum stacksize for task 11: unlimited
  | Maximum stacksize for task 12: unlimited
  | Maximum stacksize for task 13: unlimited
  | Maximum stacksize for task 14: unlimited
  | Maximum stacksize for task 15: unlimited
  | Maximum stacksize for task 16: unlimited
  | Maximum stacksize for task 17: unlimited
  | Maximum stacksize for task 18: unlimited
  | Maximum stacksize for task 19: unlimited
  | Maximum stacksize for task 20: unlimited
  | Maximum stacksize for task 21: unlimited
  | Maximum stacksize for task 22: unlimited
  | Maximum stacksize for task 23: unlimited
  | Maximum stacksize for task 24: unlimited
  | Maximum stacksize for task 25: unlimited
  | Maximum stacksize for task 26: unlimited
  | Maximum stacksize for task 27: unlimited
  | Maximum stacksize for task 28: unlimited
  | Maximum stacksize for task 29: unlimited
  | Maximum stacksize for task 30: unlimited
  | Maximum stacksize for task 31: unlimited
  | Maximum stacksize for task 32: unlimited
  | Maximum stacksize for task 33: unlimited
  | Maximum stacksize for task 34: unlimited
  | Maximum stacksize for task 35: unlimited
  | Maximum stacksize for task 36: unlimited
  | Maximum stacksize for task 37: unlimited
  | Maximum stacksize for task 38: unlimited
  | Maximum stacksize for task 39: unlimited
  | Maximum stacksize for task 40: unlimited
  | Maximum stacksize for task 41: unlimited
  | Maximum stacksize for task 42: unlimited
  | Maximum stacksize for task 43: unlimited
  | Maximum stacksize for task 44: unlimited
  | Maximum stacksize for task 45: unlimited
  | Maximum stacksize for task 46: unlimited
  | Maximum stacksize for task 47: unlimited
  | Maximum stacksize for task 48: unlimited
  | Maximum stacksize for task 49: unlimited
  | Maximum stacksize for task 50: unlimited
  | Maximum stacksize for task 51: unlimited
  | Maximum stacksize for task 52: unlimited
  | Maximum stacksize for task 53: unlimited
  | Maximum stacksize for task 54: unlimited
  | Maximum stacksize for task 55: unlimited
  | Maximum stacksize for task 56: unlimited
  | Maximum stacksize for task 57: unlimited
  | Maximum stacksize for task 58: unlimited
  | Maximum stacksize for task 59: unlimited
  | Maximum stacksize for task 60: unlimited
  | Maximum stacksize for task 61: unlimited
  | Maximum stacksize for task 62: unlimited
  | Maximum stacksize for task 63: unlimited
  | Maximum stacksize for task 64: unlimited
  | Maximum stacksize for task 65: unlimited
  | Maximum stacksize for task 66: unlimited
  | Maximum stacksize for task 67: unlimited
  | Maximum stacksize for task 68: unlimited
  | Maximum stacksize for task 69: unlimited
  | Maximum stacksize for task 70: unlimited
  | Maximum stacksize for task 71: unlimited
  | Maximum stacksize for task 72: unlimited
  | Maximum stacksize for task 73: unlimited
  | Maximum stacksize for task 74: unlimited
  | Maximum stacksize for task 75: unlimited
  | Maximum stacksize for task 76: unlimited
  | Maximum stacksize for task 77: unlimited
  | Maximum stacksize for task 78: unlimited
  | Maximum stacksize for task 79: unlimited
  | Maximum stacksize for task 80: unlimited
  | Maximum stacksize for task 81: unlimited
  | Maximum stacksize for task 82: unlimited
  | Maximum stacksize for task 83: unlimited
  | Maximum stacksize for task 84: unlimited
  | Maximum stacksize for task 85: unlimited
  | Maximum stacksize for task 86: unlimited
  | Maximum stacksize for task 87: unlimited
  | Maximum stacksize for task 88: unlimited
  | Maximum stacksize for task 89: unlimited
  | Maximum stacksize for task 90: unlimited
  | Maximum stacksize for task 91: unlimited
  | Maximum stacksize for task 92: unlimited
  | Maximum stacksize for task 93: unlimited
  | Maximum stacksize for task 94: unlimited
  | Maximum stacksize for task 95: unlimited
  | Maximum stacksize for task 96: unlimited
  | Maximum stacksize for task 97: unlimited
  | Maximum stacksize for task 98: unlimited
  | Maximum stacksize for task 99: unlimited
  | Maximum stacksize for task 100: unlimited
  | Maximum stacksize for task 101: unlimited
  | Maximum stacksize for task 102: unlimited
  | Maximum stacksize for task 103: unlimited
  | Maximum stacksize for task 104: unlimited
  | Maximum stacksize for task 105: unlimited
  | Maximum stacksize for task 106: unlimited
  | Maximum stacksize for task 107: unlimited
  | Current stacksize for task 0: unlimited
  | Current stacksize for task 1: unlimited
  | Current stacksize for task 2: unlimited
  | Current stacksize for task 3: unlimited
  | Current stacksize for task 4: unlimited
  | Current stacksize for task 5: unlimited
  | Current stacksize for task 6: unlimited
  | Current stacksize for task 7: unlimited
  | Current stacksize for task 8: unlimited
  | Current stacksize for task 9: unlimited
  | Current stacksize for task 10: unlimited
  | Current stacksize for task 11: unlimited
  | Current stacksize for task 12: unlimited
  | Current stacksize for task 13: unlimited
  | Current stacksize for task 14: unlimited
  | Current stacksize for task 15: unlimited
  | Current stacksize for task 16: unlimited
  | Current stacksize for task 17: unlimited
  | Current stacksize for task 18: unlimited
  | Current stacksize for task 19: unlimited
  | Current stacksize for task 20: unlimited
  | Current stacksize for task 21: unlimited
  | Current stacksize for task 22: unlimited
  | Current stacksize for task 23: unlimited
  | Current stacksize for task 24: unlimited
  | Current stacksize for task 25: unlimited
  | Current stacksize for task 26: unlimited
  | Current stacksize for task 27: unlimited
  | Current stacksize for task 28: unlimited
  | Current stacksize for task 29: unlimited
  | Current stacksize for task 30: unlimited
  | Current stacksize for task 31: unlimited
  | Current stacksize for task 32: unlimited
  | Current stacksize for task 33: unlimited
  | Current stacksize for task 34: unlimited
  | Current stacksize for task 35: unlimited
  | Current stacksize for task 36: unlimited
  | Current stacksize for task 37: unlimited
  | Current stacksize for task 38: unlimited
  | Current stacksize for task 39: unlimited
  | Current stacksize for task 40: unlimited
  | Current stacksize for task 41: unlimited
  | Current stacksize for task 42: unlimited
  | Current stacksize for task 43: unlimited
  | Current stacksize for task 44: unlimited
  | Current stacksize for task 45: unlimited
  | Current stacksize for task 46: unlimited
  | Current stacksize for task 47: unlimited
  | Current stacksize for task 48: unlimited
  | Current stacksize for task 49: unlimited
  | Current stacksize for task 50: unlimited
  | Current stacksize for task 51: unlimited
  | Current stacksize for task 52: unlimited
  | Current stacksize for task 53: unlimited
  | Current stacksize for task 54: unlimited
  | Current stacksize for task 55: unlimited
  | Current stacksize for task 56: unlimited
  | Current stacksize for task 57: unlimited
  | Current stacksize for task 58: unlimited
  | Current stacksize for task 59: unlimited
  | Current stacksize for task 60: unlimited
  | Current stacksize for task 61: unlimited
  | Current stacksize for task 62: unlimited
  | Current stacksize for task 63: unlimited
  | Current stacksize for task 64: unlimited
  | Current stacksize for task 65: unlimited
  | Current stacksize for task 66: unlimited
  | Current stacksize for task 67: unlimited
  | Current stacksize for task 68: unlimited
  | Current stacksize for task 69: unlimited
  | Current stacksize for task 70: unlimited
  | Current stacksize for task 71: unlimited
  | Current stacksize for task 72: unlimited
  | Current stacksize for task 73: unlimited
  | Current stacksize for task 74: unlimited
  | Current stacksize for task 75: unlimited
  | Current stacksize for task 76: unlimited
  | Current stacksize for task 77: unlimited
  | Current stacksize for task 78: unlimited
  | Current stacksize for task 79: unlimited
  | Current stacksize for task 80: unlimited
  | Current stacksize for task 81: unlimited
  | Current stacksize for task 82: unlimited
  | Current stacksize for task 83: unlimited
  | Current stacksize for task 84: unlimited
  | Current stacksize for task 85: unlimited
  | Current stacksize for task 86: unlimited
  | Current stacksize for task 87: unlimited
  | Current stacksize for task 88: unlimited
  | Current stacksize for task 89: unlimited
  | Current stacksize for task 90: unlimited
  | Current stacksize for task 91: unlimited
  | Current stacksize for task 92: unlimited
  | Current stacksize for task 93: unlimited
  | Current stacksize for task 94: unlimited
  | Current stacksize for task 95: unlimited
  | Current stacksize for task 96: unlimited
  | Current stacksize for task 97: unlimited
  | Current stacksize for task 98: unlimited
  | Current stacksize for task 99: unlimited
  | Current stacksize for task 100: unlimited
  | Current stacksize for task 101: unlimited
  | Current stacksize for task 102: unlimited
  | Current stacksize for task 103: unlimited
  | Current stacksize for task 104: unlimited
  | Current stacksize for task 105: unlimited
  | Current stacksize for task 106: unlimited
  | Current stacksize for task 107: unlimited
 
  Consistency checks for the contents of control.in are next.
 
  MPI_IN_PLACE appears to work with this MPI implementation.
  | Keeping use_mpi_in_place .true. (see manual).
  Target number of points in a grid batch is not set. Defaulting to  100
  Method for grid partitioning is not set. Defaulting to parallel hash+maxmin partitioning.
  Batch size limit is not set. Defaulting to    200
  By default, will store active basis functions for each batch.
  If in need of memory, prune_basis_once .false. can be used to disable this option.
  communication_type for Hartree potential was not specified.
  Defaulting to calc_hartree .
  Defaulting to Pulay charge density mixer.
  Pulay mixer: Number of relevant iterations not set.
  Defaulting to    8 iterations.
  Pulay mixer: Number of initial linear mixing iterations not set.
  Defaulting to    0 iterations.
  Work space size for distributed Hartree potential not set.
  Defaulting to   0.200000E+03 MB.
  Mixing parameter for charge density mixing has not been set.
  Using default: charge_mix_param =     0.0500.
  The mixing parameter will be adjusted in iteration number     2 of the first full s.c.f. cycle only.
  Algorithm-dependent basis array size parameters:
  | n_max_pulay                         :        8
  Presetting      1001 iterations before the initial mixing cycle
  is restarted anyway using the sc_init_iter criterion / keyword.
  Presetting a factor      1.000 between actual scf density residual
  and density convergence criterion sc_accuracy_rho below which sc_init_iter
  takes no effect.
  Calculation of forces was not defined in control.in. No forces will be calculated.
  Geometry relaxation not requested: no relaxation will be performed.
  No accuracy limit for integral partition fn. given. Defaulting to  0.1000E-14.
  No threshold value for u(r) in integrations given. Defaulting to  0.1000E-05.
  No occupation type (smearing scheme) given. Defaulting to Gaussian broadening, width =  0.1000E-01 eV.
  The width will be adjusted in iteration number     2 of the first full s.c.f. cycle only.
  S.C.F. convergence parameters will be adjusted in iteration number     2 of the first full s.c.f. cycle only.
  No accuracy for occupation numbers given. Defaulting to  0.1000E-12.
  No threshold value for occupation numbers given. Defaulting to  0.0000E+00.
  No accuracy for fermi level given. Defaulting to  0.1000E-19.
  Maximum # of iterations to find E_F not set. Defaulting to  200.
  Preferred method for the eigenvalue solver ('KS_method') not specified in 'control.in'.
  Defaulting to serial version, LAPACK (via ELSI), since more k-points than CPUs available.
  Will not use alltoall communication since running on < 1024 CPUs.
  Threshold for basis singularities not set.
  Default threshold for basis singularities:  0.1000E-04
  partition_type (choice of integration weights) for integrals was not specified.
  | Using a version of the partition function of Stratmann and coworkers ('stratmann_sparse').
  | At each grid point, the set of atoms used to build the partition table is smoothly restricted to
  | only those atoms whose free-atom density would be non-zero at that grid point.
  Partitioning for Hartree potential was not defined. Using partition_type for integrals.
  | Adjusted default value of keyword multip_moments_threshold to:       0.10000000E-11
  | This value may affect high angular momentum components of the Hartree potential in periodic systems.
  No q(lm)/r^(l+1) cutoff set for long-range Hartree potential.
  | Using default value of  0.100000E-09 .
  | Verify using the multipole_threshold keyword.
  Defaulting to new monopole extrapolation.
  Density update method: automatic selection selected.
  Using density matrix based charge density update.
  Using density matrix based charge density update.
  Using packed matrix style: index .
  Defaulting to use time-reversal symmetry for k-point grid.
  Charge integration errors on the 3D integration grid will be compensated
  by explicit normalization and distribution of residual charges.
  Use the "compensate_multipole_errors" flag to change this behaviour.
  Set 'collect_eigenvectors' to be '.true.' for all serial calculations. This is mandatory.
  Set 'collect_eigenvectors' to be '.true.' for KS_method lapack_fast and serial.
  Found potential conflicts with setting 'use_local_index' for this calculation. Will not set it.
 
  Consistency checks for the contents of geometry.in are next.
 

  Range separation radius for Ewald summation (hartree_convergence_parameter):      2.93604921 bohr.
  Number of empty states per atom not set in control.in .
  | Since you are using a method that relies on the unoccupied spectrum
  | (MP2,GW,RPA et al.), will use the full Hamiltonian size (see below)
  | as the max. possible number of states (occupied plus empty).

  Structure-dependent array size parameters: 
  | Maximum number of distinct radial functions  :       13
  | Maximum number of basis functions            :      116
  | Number of Kohn-Sham states (occupied + empty):      116
------------------------------------------------------------
  After read_input_data [GB]:   1044.58

  Performing system and environment tests:
  | Environment variable OMP_NUM_THREADS correctly set to 1.
  | Checking for ScaLAPACK...
  | Testing pdtran()...
  | All pdtran() tests passed.
  After prepare_system [GB]:   1044.50

------------------------------------------------------------
          Preparing all fixed parts of the calculation.
------------------------------------------------------------
  Determining machine precision:
    2.225073858507201E-308
  Setting up grids for atomic and cluster calculations.

  Creating wave function, potential, and density for free atoms.
  Runtime choices for atomic solver:
  | atomic solver xc        : PBE
  | compute density gradient: 1
  | compute kinetic density : F

  Species: Mg

  List of occupied orbitals and eigenvalues:
    n    l              occ      energy [Ha]    energy [eV]
    1    0           2.0000       -46.359170     -1261.4972
    2    0           2.0000        -2.927498       -79.6613
    3    0           2.0000        -0.167982        -4.5710
    2    1           6.0000        -1.706030       -46.4234


  Species: O

  List of occupied orbitals and eigenvalues:
    n    l              occ      energy [Ha]    energy [eV]
    1    0           2.0000       -18.926989      -515.0296
    2    0           2.0000        -0.880247       -23.9527
    2    1           4.0000        -0.331514        -9.0210


  Adding cutoff potential to free-atom effective potential.
  Creating fixed part of basis set: Ionic, confined, hydrogenic.
 
  Mg                   ion:

  List of free ionic orbitals and eigenvalues:
    n    l      energy [Ha]    energy [eV]
    1    0       -47.122987     -1282.2817
    2    0        -3.674099       -99.9773
    2    1        -2.451441       -66.7071


  List of ionic basis orbitals and eigenvalues:
    n    l      energy [Ha]    energy [eV]    outer radius [A]
    3    2        -0.253797        -6.9062       5.100062

 
  Mg                   hydrogenic:
 
  List of hydrogenic basis orbitals: 
    n    l      effective z      eigenvalue [eV]  inner max. [A]     outer max. [A]     outer radius [A]   
    2    1         1.500000        -7.5955           1.395712           1.395712           5.100062
    3    0         2.400000        -8.0111           0.162319           2.734035           5.100062
 
 
  O                    hydrogenic:
 
  List of hydrogenic basis orbitals: 
    n    l      effective z      eigenvalue [eV]  inner max. [A]     outer max. [A]     outer radius [A]   
    2    1         1.800000       -10.9749           1.164242           1.164242           4.578029
    3    2         7.600000       -87.3180           0.624125           0.624125           3.251020
    3    0         6.400000       -61.9207           0.061167           1.081902           4.001998
 
  Creating atomic-like basis functions for current effective potential.

  Species Mg                  :

  List of atomic basis orbitals and eigenvalues:
    n    l      energy [Ha]    energy [eV]    outer radius [A]
    1    0       -46.359170     -1261.4972       0.921046
    2    0        -2.927498       -79.6613       3.621735
    3    0        -0.167982        -4.5710       5.100062
    2    1        -1.706030       -46.4234       4.404175


  Species O                   :

  List of atomic basis orbitals and eigenvalues:
    n    l      energy [Ha]    energy [eV]    outer radius [A]
    1    0       -18.926989      -515.0296       1.415765
    2    0        -0.880247       -23.9527       4.413171
    2    1        -0.331514        -9.0210       4.522403

  Assembling full basis from fixed parts.
  | Species Mg :   atomic orbital   1 s accepted.
  | Species Mg :   atomic orbital   2 s accepted.
  | Species Mg :   atomic orbital   3 s accepted.
  | Species Mg :    hydro orbital   3 s accepted.
  | Species Mg :   atomic orbital   2 p accepted.
  | Species Mg :    hydro orbital   2 p accepted.
  | Species Mg :    ionic orbital   3 d accepted.
  | Species O :   atomic orbital   1 s accepted.
  | Species O :    hydro orbital   3 s accepted.
  | Species O :   atomic orbital   2 s accepted.
  | Species O :   atomic orbital   2 p accepted.
  | Species O :    hydro orbital   2 p accepted.
  | Species O :    hydro orbital   3 d accepted.
 
  Basis size parameters after reduction:
  | Total number of radial functions:       13
  | Total number of basis functions :      116
 
  Per-task memory consumption for arrays in subroutine allocate_ext:
  |           4.443152MB.
  Testing on-site integration grid accuracy.
  |  Species  Function  <phi|h_atom|phi> (log., in eV)  <phi|h_atom|phi> (rad., in eV)
           1        1              -1261.4972086064              -1261.4966102663
           1        2                -79.6612686792                -79.6612661850
           1        3                 -4.5766449847                 -4.5764463354
           1        4                  4.2856803862                  4.2813226631
           1        5                -46.4234362291                -46.4234361907
           1        6                 -0.5282558506                 -0.5281575826
           1        7                  4.0144889854                  4.0133736295
           2        8               -515.0295626295               -515.0294562738
           2        9                 15.1698434419                 15.1699322204
           2       10                -21.6038822678                -21.6039118105
           2       11                 -9.0211123393                 -9.0212703513
           2       12                  8.3047696391                  8.2854840999
           2       13                 45.8428042125                 45.8427461222

  Preparing densities etc. for the partition functions (integrals / Hartree potential).

  Preparations completed.
  max(cpu_time)          :      0.178 s.
  Wall clock time (cpu1) :      0.173 s.
------------------------------------------------------------
  After prepare_scf [GB]:   1040.77

  Initializing index lists of integration centers etc. from given atomic structure:
  Mapping all atomic coordinates to central unit cell.

  Initializing the k-points
  Using symmetry for reducing the k-points
  | k-points reduced from:      512 to      260
  | Number of k-points                             :       260
  | Consuming       2080 KiB for k_phase_exx.
  The eigenvectors in the calculations are COMPLEX.
  | K-points in task   0:         2
  | K-points in task   1:         3
  | K-points in task   2:         3
  | K-points in task   3:         3
  | K-points in task   4:         3
  | K-points in task   5:         3
  | K-points in task   6:         3
  | K-points in task   7:         3
  | K-points in task   8:         3
  | K-points in task   9:         3
  | K-points in task  10:         3
  | K-points in task  11:         3
  | K-points in task  12:         3
  | K-points in task  13:         3
  | K-points in task  14:         3
  | K-points in task  15:         3
  | K-points in task  16:         3
  | K-points in task  17:         3
  | K-points in task  18:         3
  | K-points in task  19:         3
  | K-points in task  20:         3
  | K-points in task  21:         3
  | K-points in task  22:         3
  | K-points in task  23:         3
  | K-points in task  24:         3
  | K-points in task  25:         3
  | K-points in task  26:         3
  | K-points in task  27:         3
  | K-points in task  28:         3
  | K-points in task  29:         3
  | K-points in task  30:         3
  | K-points in task  31:         3
  | K-points in task  32:         3
  | K-points in task  33:         3
  | K-points in task  34:         3
  | K-points in task  35:         3
  | K-points in task  36:         3
  | K-points in task  37:         3
  | K-points in task  38:         3
  | K-points in task  39:         3
  | K-points in task  40:         3
  | K-points in task  41:         3
  | K-points in task  42:         3
  | K-points in task  43:         3
  | K-points in task  44:         3
  | K-points in task  45:         2
  | K-points in task  46:         2
  | K-points in task  47:         2
  | K-points in task  48:         2
  | K-points in task  49:         2
  | K-points in task  50:         2
  | K-points in task  51:         2
  | K-points in task  52:         2
  | K-points in task  53:         2
  | K-points in task  54:         2
  | K-points in task  55:         2
  | K-points in task  56:         2
  | K-points in task  57:         2
  | K-points in task  58:         2
  | K-points in task  59:         2
  | K-points in task  60:         2
  | K-points in task  61:         2
  | K-points in task  62:         2
  | K-points in task  63:         2
  | K-points in task  64:         2
  | K-points in task  65:         2
  | K-points in task  66:         2
  | K-points in task  67:         2
  | K-points in task  68:         2
  | K-points in task  69:         2
  | K-points in task  70:         2
  | K-points in task  71:         2
  | K-points in task  72:         2
  | K-points in task  73:         2
  | K-points in task  74:         2
  | K-points in task  75:         2
  | K-points in task  76:         2
  | K-points in task  77:         2
  | K-points in task  78:         2
  | K-points in task  79:         2
  | K-points in task  80:         2
  | K-points in task  81:         2
  | K-points in task  82:         2
  | K-points in task  83:         2
  | K-points in task  84:         2
  | K-points in task  85:         2
  | K-points in task  86:         2
  | K-points in task  87:         2
  | K-points in task  88:         2
  | K-points in task  89:         2
  | K-points in task  90:         2
  | K-points in task  91:         2
  | K-points in task  92:         2
  | K-points in task  93:         2
  | K-points in task  94:         2
  | K-points in task  95:         2
  | K-points in task  96:         2
  | K-points in task  97:         2
  | K-points in task  98:         2
  | K-points in task  99:         2
  | K-points in task 100:         2
  | K-points in task 101:         2
  | K-points in task 102:         2
  | K-points in task 103:         2
  | K-points in task 104:         2
  | K-points in task 105:         2
  | K-points in task 106:         2
  | K-points in task 107:         2
  | Number of basis functions in the Hamiltonian integrals :      3035
  | Number of basis functions in a single unit cell        :       116
  | Number of centers in hartree potential         :      1395
  | Number of centers in hartree multipole         :      1011
  | Number of centers in electron density summation:       772
  | Number of centers in basis integrals           :       783
  | Number of centers in integrals                 :       251
  | Number of centers in hamiltonian               :       815
  | Consuming        633 KiB for k_phase.
  | Number of super-cells (origin) [n_cells]                     :         729
  | Number of super-cells (after PM_index) [n_cells]             :         156
  | Number of super-cells in hamiltonian [n_cells_in_hamiltonian]:         156
  | Size of matrix packed + index [n_hamiltonian_matrix_size] :      272269
  | Size of matrix packed + index (no_symmetry):      539373
  After initialize_bc_dependent_lists [GB]:   1040.10

------------------------------------------------------------
          Begin self-consistency loop: Initialization.

          Date     :  20240930, Time     :  151150.273
------------------------------------------------------------
  Available memory per node after initialize_hartree_non_periodic_ewald [GB]:   1040.10
  | Estimated reciprocal-space cutoff momentum G_max:         3.22220748 bohr^-1 .
  | Reciprocal lattice points for long-range Hartree potential:     304
  Available memory per node after initialize_recip_hartree_potential [GB]:   1040.10
  Available memory per node after initialize_scalapack [GB]:   1040.10
  Available memory per node after aims_elsi_init_scf [GB]:   1040.10
  Available memory per node after initialize_fixed_grids [GB]:   1040.10
  Partitioning the integration grid into batches with parallel hashing+maxmin method.
  | Number of batches:      644
  | Maximal batch size:     108
  | Minimal batch size:      50
  | Average batch size:      74.137
  | Standard deviation of batch sizes:      14.253

  Integration load balanced across   108 MPI tasks.
  Work distribution over tasks is as follows:
  Task     0 has        458 integration points.
  Task     1 has        419 integration points.
  Task     2 has        425 integration points.
  Task     3 has        419 integration points.
  Task     4 has        430 integration points.
  Task     5 has        412 integration points.
  Task     6 has        433 integration points.
  Task     7 has        459 integration points.
  Task     8 has        420 integration points.
  Task     9 has        462 integration points.
  Task    10 has        436 integration points.
  Task    11 has        439 integration points.
  Task    12 has        458 integration points.
  Task    13 has        411 integration points.
  Task    14 has        491 integration points.
  Task    15 has        411 integration points.
  Task    16 has        403 integration points.
  Task    17 has        409 integration points.
  Task    18 has        427 integration points.
  Task    19 has        461 integration points.
  Task    20 has        453 integration points.
  Task    21 has        447 integration points.
  Task    22 has        416 integration points.
  Task    23 has        448 integration points.
  Task    24 has        446 integration points.
  Task    25 has        454 integration points.
  Task    26 has        419 integration points.
  Task    27 has        428 integration points.
  Task    28 has        425 integration points.
  Task    29 has        418 integration points.
  Task    30 has        428 integration points.
  Task    31 has        457 integration points.
  Task    32 has        459 integration points.
  Task    33 has        452 integration points.
  Task    34 has        461 integration points.
  Task    35 has        457 integration points.
  Task    36 has        443 integration points.
  Task    37 has        454 integration points.
  Task    38 has        442 integration points.
  Task    39 has        495 integration points.
  Task    40 has        415 integration points.
  Task    41 has        454 integration points.
  Task    42 has        491 integration points.
  Task    43 has        457 integration points.
  Task    44 has        458 integration points.
  Task    45 has        451 integration points.
  Task    46 has        460 integration points.
  Task    47 has        483 integration points.
  Task    48 has        450 integration points.
  Task    49 has        457 integration points.
  Task    50 has        424 integration points.
  Task    51 has        447 integration points.
  Task    52 has        447 integration points.
  Task    53 has        443 integration points.
  Task    54 has        445 integration points.
  Task    55 has        434 integration points.
  Task    56 has        457 integration points.
  Task    57 has        409 integration points.
  Task    58 has        448 integration points.
  Task    59 has        449 integration points.
  Task    60 has        431 integration points.
  Task    61 has        442 integration points.
  Task    62 has        405 integration points.
  Task    63 has        456 integration points.
  Task    64 has        409 integration points.
  Task    65 has        408 integration points.
  Task    66 has        445 integration points.
  Task    67 has        404 integration points.
  Task    68 has        420 integration points.
  Task    69 has        456 integration points.
  Task    70 has        427 integration points.
  Task    71 has        454 integration points.
  Task    72 has        486 integration points.
  Task    73 has        423 integration points.
  Task    74 has        446 integration points.
  Task    75 has        443 integration points.
  Task    76 has        454 integration points.
  Task    77 has        486 integration points.
  Task    78 has        457 integration points.
  Task    79 has        458 integration points.
  Task    80 has        429 integration points.
  Task    81 has        458 integration points.
  Task    82 has        411 integration points.
  Task    83 has        475 integration points.
  Task    84 has        453 integration points.
  Task    85 has        457 integration points.
  Task    86 has        437 integration points.
  Task    87 has        426 integration points.
  Task    88 has        432 integration points.
  Task    89 has        488 integration points.
  Task    90 has        414 integration points.
  Task    91 has        450 integration points.
  Task    92 has        454 integration points.
  Task    93 has        456 integration points.
  Task    94 has        417 integration points.
  Task    95 has        416 integration points.
  Task    96 has        489 integration points.
  Task    97 has        459 integration points.
  Task    98 has        478 integration points.
  Task    99 has        452 integration points.
  Task   100 has        419 integration points.
  Task   101 has        454 integration points.
  Task   102 has        406 integration points.
  Task   103 has        405 integration points.
  Task   104 has        423 integration points.
  Task   105 has        406 integration points.
  Task   106 has        451 integration points.
  Task   107 has        455 integration points.
  Available memory per node after partition_grid [GB]:   1040.10
  Initializing partition tables, free-atom densities, potentials, etc. across the integration grid (initialize_grid_storage).
  | initialize_grid_storage: Actual outermost partition radius vs. multipole_radius_free
  | (-- VB: in principle, multipole_radius_free should be larger, hence this output)
  | Species        1: Confinement radius =              5.500000000000000 AA, multipole_radius_free =              5.555717568450569 AA.
  | Species        1: outer_partition_radius set to              5.555717568450569 AA .
  | Species        2: Confinement radius =              4.999999999999999 AA, multipole_radius_free =              5.048384829883283 AA.
  | Species        2: outer_partition_radius set to              5.048384829883283 AA .
  | The sparse table of interatomic distances needs       2916.40 kbyte instead of      4904.71 kbyte of memory.
  | Net number of integration points:    47744
  | of which are non-zero points    :    36696
  | Numerical average free-atom electrostatic potential    :    -16.91921908 eV
  Available memory per node after initialize_grid_storage_p1 [GB]:   1040.06
  Renormalizing the initial density to the exact electron count on the 3D integration grid.
  | Initial density: Formal number of electrons (from input files) :      80.0000000000
  | Integrated number of electrons on 3D grid     :      80.0130686917
  | Charge integration error                      :       0.0130686917
  | Normalization factor for density and gradient :       0.9998366680
  Renormalizing the free-atom superposition density to the exact electron count on the 3D integration grid.
  | Formal number of electrons (from input files) :      80.0000000000
  | Integrated number of electrons on 3D grid     :      80.0130686917
  | Charge integration error                      :       0.0130686917
  | Normalization factor for density and gradient :       0.9998366680
  Obtaining max. number of non-zero basis functions in each batch (get_n_compute_maxes).
  | Maximal number of non-zero basis functions:      779 in task     0
  | Maximal number of non-zero basis functions:      754 in task     1
  | Maximal number of non-zero basis functions:      735 in task     2
  | Maximal number of non-zero basis functions:      740 in task     3
  | Maximal number of non-zero basis functions:      816 in task     4
  | Maximal number of non-zero basis functions:      753 in task     5
  | Maximal number of non-zero basis functions:      764 in task     6
  | Maximal number of non-zero basis functions:      770 in task     7
  | Maximal number of non-zero basis functions:      772 in task     8
  | Maximal number of non-zero basis functions:      791 in task     9
  | Maximal number of non-zero basis functions:      763 in task    10
  | Maximal number of non-zero basis functions:      753 in task    11
  | Maximal number of non-zero basis functions:      756 in task    12
  | Maximal number of non-zero basis functions:      772 in task    13
  | Maximal number of non-zero basis functions:      792 in task    14
  | Maximal number of non-zero basis functions:      764 in task    15
  | Maximal number of non-zero basis functions:      770 in task    16
  | Maximal number of non-zero basis functions:      754 in task    17
  | Maximal number of non-zero basis functions:      757 in task    18
  | Maximal number of non-zero basis functions:      750 in task    19
  | Maximal number of non-zero basis functions:      766 in task    20
  | Maximal number of non-zero basis functions:      754 in task    21
  | Maximal number of non-zero basis functions:      732 in task    22
  | Maximal number of non-zero basis functions:      743 in task    23
  | Maximal number of non-zero basis functions:      746 in task    24
  | Maximal number of non-zero basis functions:      741 in task    25
  | Maximal number of non-zero basis functions:      737 in task    26
  | Maximal number of non-zero basis functions:      760 in task    27
  | Maximal number of non-zero basis functions:      770 in task    28
  | Maximal number of non-zero basis functions:      764 in task    29
  | Maximal number of non-zero basis functions:      764 in task    30
  | Maximal number of non-zero basis functions:      745 in task    31
  | Maximal number of non-zero basis functions:      739 in task    32
  | Maximal number of non-zero basis functions:      752 in task    33
  | Maximal number of non-zero basis functions:      742 in task    34
  | Maximal number of non-zero basis functions:      770 in task    35
  | Maximal number of non-zero basis functions:      808 in task    36
  | Maximal number of non-zero basis functions:      757 in task    37
  | Maximal number of non-zero basis functions:      749 in task    38
  | Maximal number of non-zero basis functions:      765 in task    39
  | Maximal number of non-zero basis functions:      752 in task    40
  | Maximal number of non-zero basis functions:      752 in task    41
  | Maximal number of non-zero basis functions:      754 in task    42
  | Maximal number of non-zero basis functions:      767 in task    43
  | Maximal number of non-zero basis functions:      773 in task    44
  | Maximal number of non-zero basis functions:      769 in task    45
  | Maximal number of non-zero basis functions:      772 in task    46
  | Maximal number of non-zero basis functions:      767 in task    47
  | Maximal number of non-zero basis functions:      765 in task    48
  | Maximal number of non-zero basis functions:      770 in task    49
  | Maximal number of non-zero basis functions:      766 in task    50
  | Maximal number of non-zero basis functions:      804 in task    51
  | Maximal number of non-zero basis functions:      781 in task    52
  | Maximal number of non-zero basis functions:      764 in task    53
  | Maximal number of non-zero basis functions:      754 in task    54
  | Maximal number of non-zero basis functions:      747 in task    55
  | Maximal number of non-zero basis functions:      747 in task    56
  | Maximal number of non-zero basis functions:      757 in task    57
  | Maximal number of non-zero basis functions:      767 in task    58
  | Maximal number of non-zero basis functions:      769 in task    59
  | Maximal number of non-zero basis functions:      764 in task    60
  | Maximal number of non-zero basis functions:      744 in task    61
  | Maximal number of non-zero basis functions:      749 in task    62
  | Maximal number of non-zero basis functions:      751 in task    63
  | Maximal number of non-zero basis functions:      773 in task    64
  | Maximal number of non-zero basis functions:      754 in task    65
  | Maximal number of non-zero basis functions:      771 in task    66
  | Maximal number of non-zero basis functions:      770 in task    67
  | Maximal number of non-zero basis functions:      808 in task    68
  | Maximal number of non-zero basis functions:      770 in task    69
  | Maximal number of non-zero basis functions:      768 in task    70
  | Maximal number of non-zero basis functions:      768 in task    71
  | Maximal number of non-zero basis functions:      764 in task    72
  | Maximal number of non-zero basis functions:      746 in task    73
  | Maximal number of non-zero basis functions:      749 in task    74
  | Maximal number of non-zero basis functions:      761 in task    75
  | Maximal number of non-zero basis functions:      759 in task    76
  | Maximal number of non-zero basis functions:      757 in task    77
  | Maximal number of non-zero basis functions:      764 in task    78
  | Maximal number of non-zero basis functions:      758 in task    79
  | Maximal number of non-zero basis functions:      777 in task    80
  | Maximal number of non-zero basis functions:      742 in task    81
  | Maximal number of non-zero basis functions:      771 in task    82
  | Maximal number of non-zero basis functions:      764 in task    83
  | Maximal number of non-zero basis functions:      736 in task    84
  | Maximal number of non-zero basis functions:      744 in task    85
  | Maximal number of non-zero basis functions:      739 in task    86
  | Maximal number of non-zero basis functions:      755 in task    87
  | Maximal number of non-zero basis functions:      780 in task    88
  | Maximal number of non-zero basis functions:      752 in task    89
  | Maximal number of non-zero basis functions:      746 in task    90
  | Maximal number of non-zero basis functions:      764 in task    91
  | Maximal number of non-zero basis functions:      744 in task    92
  | Maximal number of non-zero basis functions:      768 in task    93
  | Maximal number of non-zero basis functions:      753 in task    94
  | Maximal number of non-zero basis functions:      742 in task    95
  | Maximal number of non-zero basis functions:      753 in task    96
  | Maximal number of non-zero basis functions:      744 in task    97
  | Maximal number of non-zero basis functions:      739 in task    98
  | Maximal number of non-zero basis functions:      766 in task    99
  | Maximal number of non-zero basis functions:      804 in task   100
  | Maximal number of non-zero basis functions:      800 in task   101
  | Maximal number of non-zero basis functions:      749 in task   102
  | Maximal number of non-zero basis functions:      743 in task   103
  | Maximal number of non-zero basis functions:      781 in task   104
  | Maximal number of non-zero basis functions:      770 in task   105
  | Maximal number of non-zero basis functions:      747 in task   106
  | Maximal number of non-zero basis functions:      772 in task   107
  Available memory per node after get_n_compute_maxes_p1 [GB]:   1040.02
  Allocating        0.411 MB for KS_eigenvector_complex
  Available memory per node after allocate_matrices [GB]:   1040.00
  Available memory per node after init_comm_sparse_local_matrix_scalapack [GB]:   1040.00
  Integrating Hamiltonian matrix: batch-based integration.
  Time summed over all CPUs for integration: real work        6.823 s, elapsed        7.578 s
  Available memory per node after integrate hamiltonian matrix [GB]:   1039.15
  Integrating overlap matrix.
  Time summed over all CPUs for integration: real work        5.032 s, elapsed        5.559 s
  Available memory per node after integrate ovlp matrix [GB]:   1038.73
  Available memory per node after ASI_callbacks invoke [GB]:   1038.73
  Available memory per node after save_overlap_scalapack [GB]:   1038.73

  Updating Kohn-Sham eigenvalues and eigenvectors using ELSI and the (modified) LAPACK eigensolver.
  Singularity check in k-point 108, task 0 (analysis for other k-points/tasks may follow below):
  Overlap matrix is not singular
  | Lowest and highest eigenvalues :  0.4624E-03,  0.1004E+02
  Finished singularity check of overlap matrix
  | Time :     0.001 s
  Starting LAPACK eigensolver
  Finished Cholesky decomposition
  | Time :     0.000 s
  Finished transformation to standard eigenproblem
  | Time :     0.000 s
  Finished solving standard eigenproblem
  | Time :     0.002 s
  Finished back-transformation of eigenvectors
  | Time :     0.000 s

  Obtaining occupation numbers and electronic chemical potential using ELSI.
  | Note that, for insulating systems, the printed 'chemical potential' value is not uniquely defined.
  | It can be anywhere in the energy gap, as long as it correctly separates occupied and unoccupied states.
  | In systems with a gap, the physically relevant chemical potential is the VBM or HOMO.

  | Chemical potential (Fermi level):    -7.92384766 eV
  Available memory per node after advance_KS_solution [GB]:   1038.54
  Writing Kohn-Sham eigenvalues.
  K-point:       1 at    0.000000    0.000000    0.000000 (in units of recip. lattice)

  State    Occupation    Eigenvalue [Ha]    Eigenvalue [eV]
      1       2.00000         -46.376522        -1261.96938
      2       2.00000         -46.376522        -1261.96938
      3       2.00000         -46.376522        -1261.96938
      4       2.00000         -46.376522        -1261.96938
      5       2.00000         -19.030215         -517.83850
      6       2.00000         -19.030215         -517.83850
      7       2.00000         -19.030215         -517.83850
      8       2.00000         -19.030215         -517.83850
      9       2.00000          -2.952179          -80.33289
     10       2.00000          -2.951786          -80.32217
     11       2.00000          -2.951786          -80.32217
     12       2.00000          -2.951786          -80.32217
     13       2.00000          -1.733117          -47.16052
     14       2.00000          -1.733117          -47.16052
     15       2.00000          -1.733117          -47.16052
     16       2.00000          -1.731497          -47.11644
     17       2.00000          -1.731497          -47.11644
     18       2.00000          -1.731497          -47.11644
     19       2.00000          -1.731497          -47.11644
     20       2.00000          -1.731497          -47.11644
     21       2.00000          -1.731497          -47.11644
     22       2.00000          -1.730443          -47.08776
     23       2.00000          -1.730443          -47.08776
     24       2.00000          -1.730443          -47.08776
     25       2.00000          -1.070774          -29.13724
     26       2.00000          -1.030742          -28.04791
     27       2.00000          -1.030742          -28.04791
     28       2.00000          -1.030742          -28.04791
     29       2.00000          -0.562606          -15.30928
     30       2.00000          -0.562606          -15.30928
     31       2.00000          -0.562606          -15.30928
     32       2.00000          -0.489975          -13.33291
     33       2.00000          -0.489975          -13.33291
     34       2.00000          -0.489975          -13.33291
     35       2.00000          -0.489975          -13.33291
     36       2.00000          -0.489975          -13.33291
     37       2.00000          -0.489975          -13.33291
     38       2.00000          -0.454823          -12.37638
     39       2.00000          -0.454823          -12.37638
     40       2.00000          -0.454823          -12.37637
     41       0.00000          -0.221928           -6.03898
     42       0.00000          -0.022502           -0.61232
     43       0.00000          -0.022502           -0.61232
     44       0.00000          -0.022502           -0.61232
     45       0.00000          -0.000181           -0.00492
     46       0.00000          -0.000181           -0.00492
     47       0.00000          -0.000181           -0.00492
     48       0.00000           0.067889            1.84737
     49       0.00000           0.067890            1.84737
     50       0.00000           0.067890            1.84737
     51       0.00000           0.229963            6.25762
     52       0.00000           0.229963            6.25762
     53       0.00000           0.229963            6.25762
     54       0.00000           0.329982            8.97927
     55       0.00000           0.329982            8.97927
     56       0.00000           0.329982            8.97928
     57       0.00000           0.329982            8.97928
     58       0.00000           0.329982            8.97928
     59       0.00000           0.329982            8.97928
     60       0.00000           0.430326           11.70976
     61       0.00000           0.430326           11.70977
     62       0.00000           0.558827           15.20645
     63       0.00000           0.558827           15.20646
     64       0.00000           0.558827           15.20646
     65       0.00000           0.560100           15.24108
     66       0.00000           0.560100           15.24109
     67       0.00000           0.560100           15.24109
     68       0.00000           0.630804           17.16505
     69       0.00000           0.630804           17.16505
     70       0.00000           0.630804           17.16505
     71       0.00000           0.804309           21.88637
     72       0.00000           0.804309           21.88637
     73       0.00000           0.804310           21.88638
     74       0.00000           0.804310           21.88638
     75       0.00000           0.804310           21.88639
     76       0.00000           0.804310           21.88639
     77       0.00000           1.277571           34.76446
     78       0.00000           1.277571           34.76449
     79       0.00000           1.277571           34.76449
     80       0.00000           1.619906           44.07989
     81       0.00000           1.619906           44.07989
     82       0.00000           1.619907           44.07991
     83       0.00000           1.619907           44.07991
     84       0.00000           1.619907           44.07992
     85       0.00000           1.619907           44.07992
     86       0.00000           1.649370           44.88165
     87       0.00000           1.649370           44.88165
     88       0.00000           1.649370           44.88165
     89       0.00000           1.649370           44.88165
     90       0.00000           1.649371           44.88166
     91       0.00000           1.649371           44.88166
     92       0.00000           2.014099           54.80643
     93       0.00000           2.080850           56.62280
     94       0.00000           2.080851           56.62283
     95       0.00000           2.080851           56.62283
     96       0.00000           2.091386           56.90950
     97       0.00000           2.091386           56.90950
     98       0.00000           2.091386           56.90952
     99       0.00000           2.115852           57.57526
    100       0.00000           2.115852           57.57526
    101       0.00000           2.115852           57.57528
    102       0.00000           2.121561           57.73061
    103       0.00000           2.121561           57.73061
    104       0.00000           2.121561           57.73061
    105       0.00000           2.220079           60.41142
    106       0.00000           2.220080           60.41145
    107       0.00000           2.220080           60.41145
    108       0.00000           2.383762           64.86545
    109       0.00000           2.383762           64.86545
    110       0.00000           2.383762           64.86547
    111       0.00000           2.432548           66.19299
    112       0.00000           2.432548           66.19300
    113       0.00000           2.845148           77.42042
    114       0.00000           4.605484          125.32160
    115       0.00000           4.605484          125.32160
    116       0.00000           4.605486          125.32166

  What follows are estimated values for band gap, HOMO, LUMO, etc.
  | They are estimated on a discrete k-point grid and not necessarily exact.
  | For converged numbers, create a DOS and/or band structure plot on a denser k-grid.

  Highest occupied state (VBM) at    -12.37637427 eV (relative to internal zero)
  | Occupation number:      2.00000000
  | K-point:       1 at    0.000000    0.000000    0.000000 (in units of recip. lattice)

  Lowest unoccupied state (CBM) at    -6.03897593 eV (relative to internal zero)
  | Occupation number:      0.00000000
  | K-point:       1 at    0.000000    0.000000    0.000000 (in units of recip. lattice)

  ESTIMATED overall HOMO-LUMO gap:      6.33739834 eV between HOMO at k-point 1 and LUMO at k-point 1
  | This appears to be a direct band gap.
  The gap value is above 0.2 eV. Unless you are using a very sparse k-point grid,
  this system is most likely an insulator or a semiconductor.
  Calculating total energy contributions from superposition of free atom densities.

  Total energy components:
  | Sum of eigenvalues            :        -608.88329564 Ha      -16568.55747318 eV
  | XC energy correction          :         -99.99699731 Ha       -2721.05674265 eV
  | XC potential correction       :         128.88051597 Ha        3507.01727462 eV
  | Free-atom electrostatic energy:        -523.88451434 Ha      -14255.62295328 eV
  | Hartree energy correction     :           0.00000000 Ha           0.00000000 eV
  | Entropy correction            :           0.00000000 Ha           0.00000000 eV
  | ---------------------------
  | Total energy                  :       -1103.88429132 Ha      -30038.21989449 eV
  | Total energy, T -> 0          :       -1103.88429132 Ha      -30038.21989449 eV  <-- do not rely on this value for anything but (periodic) metals
  | Electronic free energy        :       -1103.88429132 Ha      -30038.21989449 eV

  Derived energy quantities:
  | Kinetic energy                :        1103.96642871 Ha       30040.45496664 eV
  | Electrostatic energy          :       -2107.85372271 Ha      -57357.61811847 eV
  | Energy correction for multipole
  | error in Hartree potential    :           0.00000000 Ha           0.00000000 eV
  | Sum of eigenvalues per atom                           :       -2071.06968415 eV
  | Total energy (T->0) per atom                          :       -3754.77748681 eV  <-- do not rely on this value for anything but (periodic) metals
  | Electronic free energy per atom                       :       -3754.77748681 eV
  Initialize hartree_potential_storage
  Max. number of atoms included in rho_multipole:            8

  End scf initialization - timings             :  max(cpu_time)    wall_clock(cpu1)
  | Time for scf. initialization                :        0.270 s           0.269 s
  | Boundary condition initialization           :        0.276 s           0.276 s
  | Integration                                 :        0.153 s           0.152 s
  | Solution of K.-S. eqns.                     :        0.029 s           0.029 s
  | Grid partitioning                           :        0.017 s           0.016 s
  | Preloading free-atom quantities on grid     :        0.062 s           0.062 s
  | Free-atom superposition energy              :        0.004 s           0.004 s
  | Total energy evaluation                     :        0.000 s           0.001 s

  Partial memory accounting:
  | Current value for overall tracked memory usage:
  |   Minimum:        5.649 MB (on task   0)
  |   Maximum:        5.854 MB (on task   1)
  |   Average:        5.732 MB
  | Peak value for overall tracked memory usage:
  |   Minimum:       11.618 MB (on task  84 after allocating wave)
  |   Maximum:       12.970 MB (on task   4 after allocating wave)
  |   Average:       12.053 MB
  | Largest tracked array allocation so far:
  |   Minimum:        4.088 MB (hamiltonian_shell on task  22)
  |   Maximum:        5.080 MB (hamiltonian_shell on task   4)
  |   Average:        4.422 MB
  Note:  These values currently only include a subset of arrays which are explicitly tracked.
  The "true" memory usage will be greater.
------------------------------------------------------------
  Available memory after initialize_scf [GB]:   1038.53
  Available memory after allocating mixing [GB]:   1038.53
  Evaluating new KS density using the density matrix
  Evaluating density matrix
  Time summed over all CPUs for getting density from density matrix: real work       11.477 s, elapsed       12.807 s
  Integration grid: deviation in total charge (<rho> - N_e) =   0.000000E+00

  Time for density update prior                :  max(cpu_time)    wall_clock(cpu1)
  | self-consistency iterative process          :        0.133 s           0.134 s
  Available memory before start of SCF loop [GB]:   1038.32

------------------------------------------------------------
          Begin self-consistency iteration #    1

  Date     :  20240930, Time     :  151150.677
------------------------------------------------------------
  Pulay mixing of updated and previous charge densities.
  Available memory per node after mixing [GB]:   1038.32
  Renormalizing the density to the exact electron count on the 3D integration grid.
  | Formal number of electrons (from input files) :      80.0000000000
  | Integrated number of electrons on 3D grid     :      80.0000000000
[...]
  | first_order_potential                       :        0.027 s           0.027 s
  | first_order_H                               :        0.570 s           0.570 s
  | Solution of Sternheimer eqns.               :        0.005 s           0.005 s
------------------------------------------------------------

--------------------------------------------------------------
          Begin CP-self-consistency iteration #    3

          Date     :  20240930, Time     :  151206.912
--------------------------------------------------------------
  Starting DFPT first order density matrix calculation
  Finished DFPT first order density matrix calculation

  CPSCF convergence accuracy:
  | Change of first_order_density_matrix     :  0.3346E+00
  Starting DFPT first order electron density calculation
  Integrating first_order_rho: batch-based integration.
  Time summed over all CPUs for integration: real work       14.408 s, elapsed       16.772 s
  Starting DFPT first order potential calculation

  Evaluating partitioned Hartree potential by multipole expansion.
  | Original multipole sum: apparent total charge =  -0.257087E-14
  | Sum of charges compensated after spline to logarithmic grids =   0.263377E-12
  | Analytical far-field extrapolation by fixed multipoles:
  | Hartree multipole sum: apparent total charge =  -0.257087E-14
  Summing up the Hartree potential.
  Time summed over all CPUs for potential: real work        2.190 s, elapsed        2.533 s
  | RMS delta_rho error from multipole expansion :   0.223498E+00

  Starting DFPT first order Hamiltonian calculation
  Integrating first-order-Hamiltonian matrix: batch-based integration.
  Time summed over all CPUs for integration: real work       48.284 s, elapsed       57.413 s
  Starting DFPT first order coefficients calculation
  End CPSCF iteration #     3                  :  max(cpu_time)    wall_clock(cpu1)
  | Time for this iteration                     :        0.822 s           0.823 s
  | first_order_DM                              :        0.024 s           0.025 s
  | first_order_density                         :        0.166 s           0.162 s
  | first_order_potential                       :        0.027 s           0.027 s
  | first_order_H                               :        0.567 s           0.567 s
  | Solution of Sternheimer eqns.               :        0.005 s           0.006 s
------------------------------------------------------------

--------------------------------------------------------------
          Begin CP-self-consistency iteration #    4

          Date     :  20240930, Time     :  151207.736
--------------------------------------------------------------
  Starting DFPT first order density matrix calculation
  Finished DFPT first order density matrix calculation

  CPSCF convergence accuracy:
  | Change of first_order_density_matrix     :  0.3238E-01
  Starting DFPT first order electron density calculation
  Integrating first_order_rho: batch-based integration.
  Time summed over all CPUs for integration: real work       14.434 s, elapsed       16.942 s
  Starting DFPT first order potential calculation

  Evaluating partitioned Hartree potential by multipole expansion.
  | Original multipole sum: apparent total charge =  -0.186100E-14
  | Sum of charges compensated after spline to logarithmic grids =   0.158208E-12
  | Analytical far-field extrapolation by fixed multipoles:
  | Hartree multipole sum: apparent total charge =  -0.186100E-14
  Summing up the Hartree potential.
  Time summed over all CPUs for potential: real work        2.337 s, elapsed        2.722 s
  | RMS delta_rho error from multipole expansion :   0.223084E+00

  Starting DFPT first order Hamiltonian calculation
  Integrating first-order-Hamiltonian matrix: batch-based integration.
  Time summed over all CPUs for integration: real work       48.106 s, elapsed       58.645 s
  Starting DFPT first order coefficients calculation
  End CPSCF iteration #     4                  :  max(cpu_time)    wall_clock(cpu1)
  | Time for this iteration                     :        0.844 s           0.843 s
  | first_order_DM                              :        0.024 s           0.023 s
  | first_order_density                         :        0.168 s           0.163 s
  | first_order_potential                       :        0.028 s           0.028 s
  | first_order_H                               :        0.578 s           0.578 s
  | Solution of Sternheimer eqns.               :        0.005 s           0.005 s
------------------------------------------------------------

--------------------------------------------------------------
          Begin CP-self-consistency iteration #    5

          Date     :  20240930, Time     :  151208.581
--------------------------------------------------------------
  Starting DFPT first order density matrix calculation
  Finished DFPT first order density matrix calculation

  CPSCF convergence accuracy:
  | Change of first_order_density_matrix     :  0.4163E-02
  Starting DFPT first order electron density calculation
  Integrating first_order_rho: batch-based integration.
  Time summed over all CPUs for integration: real work       14.458 s, elapsed       16.884 s
  Starting DFPT first order potential calculation

  Evaluating partitioned Hartree potential by multipole expansion.
  | Original multipole sum: apparent total charge =  -0.497757E-15
  | Sum of charges compensated after spline to logarithmic grids =   0.187900E-12
  | Analytical far-field extrapolation by fixed multipoles:
  | Hartree multipole sum: apparent total charge =  -0.497757E-15
  Summing up the Hartree potential.
  Time summed over all CPUs for potential: real work        2.191 s, elapsed        2.528 s
  | RMS delta_rho error from multipole expansion :   0.223030E+00

  Starting DFPT first order Hamiltonian calculation
  Integrating first-order-Hamiltonian matrix: batch-based integration.
  Time summed over all CPUs for integration: real work       48.195 s, elapsed       58.077 s
  Starting DFPT first order coefficients calculation
  End CPSCF iteration #     5                  :  max(cpu_time)    wall_clock(cpu1)
  | Time for this iteration                     :        0.847 s           0.845 s
  | first_order_DM                              :        0.024 s           0.023 s
  | first_order_density                         :        0.169 s           0.162 s
  | first_order_potential                       :        0.027 s           0.028 s
  | first_order_H                               :        0.573 s           0.572 s
  | Solution of Sternheimer eqns.               :        0.005 s           0.005 s
------------------------------------------------------------

--------------------------------------------------------------
          Begin CP-self-consistency iteration #    6

          Date     :  20240930, Time     :  151209.428
--------------------------------------------------------------
  Starting DFPT first order density matrix calculation
  Finished DFPT first order density matrix calculation

  CPSCF convergence accuracy:
  | Change of first_order_density_matrix     :  0.1938E-02
  Starting DFPT first order electron density calculation
  Integrating first_order_rho: batch-based integration.
  Time summed over all CPUs for integration: real work       14.460 s, elapsed       17.139 s
  Starting DFPT first order potential calculation

  Evaluating partitioned Hartree potential by multipole expansion.
  | Original multipole sum: apparent total charge =   0.126061E-14
  | Sum of charges compensated after spline to logarithmic grids =   0.262621E-12
  | Analytical far-field extrapolation by fixed multipoles:
  | Hartree multipole sum: apparent total charge =   0.126061E-14
  Summing up the Hartree potential.
  Time summed over all CPUs for potential: real work        2.189 s, elapsed        2.532 s
  | RMS delta_rho error from multipole expansion :   0.223078E+00

  Starting DFPT first order Hamiltonian calculation
  Integrating first-order-Hamiltonian matrix: batch-based integration.
  Time summed over all CPUs for integration: real work       47.990 s, elapsed       57.219 s
  Starting DFPT first order coefficients calculation
  End CPSCF iteration #     6                  :  max(cpu_time)    wall_clock(cpu1)
  | Time for this iteration                     :        0.853 s           0.851 s
  | first_order_DM                              :        0.024 s           0.023 s
  | first_order_density                         :        0.171 s           0.166 s
  | first_order_potential                       :        0.027 s           0.027 s
  | first_order_H                               :        0.565 s           0.565 s
  | Solution of Sternheimer eqns.               :        0.005 s           0.005 s
------------------------------------------------------------

--------------------------------------------------------------
          Begin CP-self-consistency iteration #    7

          Date     :  20240930, Time     :  151210.282
--------------------------------------------------------------
  Starting DFPT first order density matrix calculation
  Finished DFPT first order density matrix calculation

  CPSCF convergence accuracy:
  | Change of first_order_density_matrix     :  0.3295E-04
  Starting DFPT first order electron density calculation
  Integrating first_order_rho: batch-based integration.
  Time summed over all CPUs for integration: real work       14.477 s, elapsed       17.175 s
  Starting DFPT first order potential calculation

  Evaluating partitioned Hartree potential by multipole expansion.
  | Original multipole sum: apparent total charge =  -0.937003E-15
  | Sum of charges compensated after spline to logarithmic grids =   0.158840E-12
  | Analytical far-field extrapolation by fixed multipoles:
  | Hartree multipole sum: apparent total charge =  -0.937002E-15
  Summing up the Hartree potential.
  Time summed over all CPUs for potential: real work        2.343 s, elapsed        2.716 s
  | RMS delta_rho error from multipole expansion :   0.223080E+00

  Starting DFPT first order Hamiltonian calculation
  Integrating first-order-Hamiltonian matrix: batch-based integration.
  Time summed over all CPUs for integration: real work       48.087 s, elapsed       57.745 s
  Starting DFPT first order coefficients calculation

  CP-self-consistency cycle converged.

  End CPSCF iteration #     7                  :  max(cpu_time)    wall_clock(cpu1)
  | Time for this iteration                     :        0.874 s           0.871 s
  | first_order_DM                              :        0.025 s           0.022 s
  | first_order_density                         :        0.172 s           0.165 s
  | first_order_potential                       :        0.029 s           0.030 s
  | first_order_H                               :        0.570 s           0.570 s
  | Solution of Sternheimer eqns.               :        0.005 s           0.005 s
------------------------------------------------------------
  Electric field response: Starting output of polarizability tensor
DFPT for polarizability (Bohr^3) :--->
   85.5925295929512      -1.705675426433295E-005 -3.403506365629028E-010
 -1.465494392505207E-014   85.5925129932518      -1.698905594130218E-005
 -3.214095656289828E-013  6.872280522429719E-014   85.5925129835364
The mean polarizability is   85.592519
DFPT polarizability (Bohr^3)        xx        yy        zz        xy        xz        yz
  | Polarizability:--->             85.5925296    85.5925130    85.5925130    -0.0000171    -0.0000000    -0.0000170
  Electric field response: Begin calculation of dielectric constant

DFPT for dielectric_constant:--->
   3.05915089614231      -4.103445825904512E-007 -8.188019697677251E-012
 -3.525627885949457E-016   3.05915049679337      -4.087159233698498E-007
 -7.732342977139150E-015  1.653305804092965E-015   3.05915049655964
  Cleaning up pulay mixer
  Starting DFPT general deallocation
  Starting electric field response deallocation

------------------------------------------------------------------------------
  Final output of selected total energy values:

  The following output summarizes some interesting total energy values
  at the end of a run (AFTER all relaxation, molecular dynamics, etc.).

  | Total energy of the DFT / Hartree-Fock s.c.f. calculation      :         -30031.902328407 eV
  | Final zero-broadening corrected energy (caution - metals only) :         -30031.902328407 eV
  | For reference only, the value of 1 Hartree used in FHI-aims is :             27.211384500 eV
  | For reference only, the overall average (free atom contribution
  | + realspace contribution) of the electrostatic potential after
  | s.c.f. convergence is                                          :            -16.305980728 eV

  Before relying on these values, please be sure to understand exactly which
  total energy value is referred to by a given number. Different objects may
  all carry the same name 'total energy'. Definitions:

  Total energy of the DFT / Hartree-Fock s.c.f. calculation:
  | Note that this energy does not include ANY quantities calculated after the
  | s.c.f. cycle, in particular not ANY RPA, MP2, etc. many-body perturbation terms.

  Final zero-broadening corrected energy:
  | For metallic systems only, a broadening of the occupation numbers at the Fermi
  | level can be extrapolated back to zero broadening by an electron-gas inspired
  | formula. For all systems that are not real metals, this value can be
  | meaningless and should be avoided.

------------------------------------------------------------------------------
  Methods described in the following list of references were used in this FHI-aims run.
  If you publish the results, please make sure to cite these reference if they apply.
  FHI-aims is an academic code, and for our developers (often, Ph.D. students
  and postdocs), scientific credit in the community is essential.
  Thank you for helping us!

  For any use of FHI-aims, please cite:

    Volker Blum, Ralf Gehrke, Felix Hanke, Paula Havu, Ville Havu,
    Xinguo Ren, Karsten Reuter, and Matthias Scheffler
    'Ab initio molecular simulations with numeric atom-centered orbitals'
    Computer Physics Communications 180, 2175-2196 (2009)
    http://doi.org/10.1016/j.cpc.2009.06.022


  The provided symmetry information was generated with SPGlib:

    Atsushi Togo, Yusuke Seto, Dimitar Pashov
    SPGlib 1.7.3 obtained from http://spglib.sourceforge.net
    Licence: New BSD license
    Copyright (C) 2008 Atsushi Togo


  The DFPT (perturbation by an electric field) part of the code was used.
  Here is the corresponding reference:

    Honghui Shang, Nathaniel Raimbault, Mariana Rossi,
    Christian Carbogno, Patrick Rinke and Matthias Scheffler,
    'All-Electron, Real-Space Perturbation Theory for Homogeneous
    Electric Fields: Theory, Implementation, and Application within dft'
    New Journal of Physics, 20(7):073040, 2018


  The ELSI infrastructure was used in your run to solve the Kohn-Sham electronic structure.
  Please check out https://wordpress.elsi-interchange.org to learn more.
  If scalability is important for your project, please acknowledge ELSI by citing:

    V. W-z. Yu, F. Corsetti, A. Garcia, W. P. Huhn, M. Jacquelin, W. Jia,
    B. Lange, L. Lin, J. Lu, W. Mi, A. Seifitokaldani, A. Vazquez-Mayagoitia,
    C. Yang, H. Yang, and V. Blum
    'ELSI: A unified software interface for Kohn-Sham electronic structure solvers'
    Computer Physics Communications 222, 267-285 (2018).
    http://doi.org/10.1016/j.cpc.2017.09.007


  For the real-space grid partitioning and parallelization used in this calculation, please cite:

    Ville Havu, Volker Blum, Paula Havu, and Matthias Scheffler,
    'Efficient O(N) integration for all-electron electronic structure calculation'
    'using numerically tabulated basis functions'
    Journal of Computational Physics 228, 8367-8379 (2009).
    http://doi.org/10.1016/j.jcp.2009.08.008

  Of course, there are many other important community references, e.g., those cited in the
  above references. Our list is limited to references that describe implementations in the
  FHI-aims code. The reason is purely practical (length of this list) - please credit others as well.

------------------------------------------------------------
          Leaving FHI-aims.
          Date     :  20240930, Time     :  151211.160

          Computational steps:
          | Number of self-consistency cycles          :           12
          | Number of SCF (re)initializations          :            1
          | Number of coupled perturbed self-consistency cycles          :           20
          | Number of CPSCF (re)initializations          :            3

          Detailed time accounting                     :  max(cpu_time)    wall_clock(cpu1)
          | Total time                                  :       21.421 s          21.436 s
          | Preparation time                            :        0.178 s           0.173 s
          | Boundary condition initalization            :        0.276 s           0.276 s
          | Grid partitioning                           :        0.017 s           0.016 s
          | Preloading free-atom quantities on grid     :        0.062 s           0.062 s
          | Free-atom superposition energy              :        0.004 s           0.004 s
          | Total time for integrations                 :        1.053 s           1.055 s
          | Total time for solution of K.-S. equations  :        0.296 s           0.302 s
          | Total time for density update               :        1.506 s           1.505 s
          | Total time for mixing                       :        0.007 s           0.005 s
          | Total time for Hartree multipole update     :        0.022 s           0.024 s
          | Total time for Hartree multipole sum        :        0.196 s           0.198 s
          | Total time for total energy evaluation      :        0.002 s           0.006 s
          | Total time for scaled ZORA corrections      :        0.000 s           0.000 s
          | Total time for DFPT                         :       16.769 s          16.766 s
          | Total time first_order_DM                   :        0.504 s           0.473 s
          | Total time first_order_density              :        3.359 s           3.265 s
          | Total time first_order_potential            :        0.544 s           0.550 s
          | Total time first_order_H                    :       11.393 s          11.392 s
          | Total time solving of Sternheimer equations :        0.113 s           0.116 s
          | Total time for dielectric constant          :        0.001 s           0.000 s
          | Total time momentum matrix                  :        0.000 s           0.000 s

          Partial memory accounting:
          | Residual value for overall tracked memory usage across tasks:     0.000000 MB (should be 0.000000 MB)
          | Peak values for overall tracked memory usage:
          |   Minimum:       51.674 MB (on task  67 after allocating DFPT_pulay_mixing::pulay_mix::alphas)
          |   Maximum:       51.955 MB (on task  39 after allocating DFPT_pulay_mixing::pulay_mix::alphas)
          |   Average:       51.790 MB
          | Largest tracked array allocation:
          |   Minimum:       14.541 MB (DFPT_pulay_mixing::initialize_pulay_mixing::X_in_diffs on task   0)
          |   Maximum:       14.541 MB (DFPT_pulay_mixing::initialize_pulay_mixing::X_in_diffs on task   0)
          |   Average:       14.541 MB
          Note:  These values currently only include a subset of arrays which are explicitly tracked.
          The "true" memory usage will be greater.

          Have a nice day.
------------------------------------------------------------
