------------------------------------------------------------
          Invoking FHI-aims ...

          When using FHI-aims, please cite the following reference:

            Volker Blum, Ralf Gehrke, Felix Hanke, Paula Havu,
            Ville Havu, Xinguo Ren, Karsten Reuter, and Matthias Scheffler,
            'Ab Initio Molecular Simulations with Numeric Atom-Centered Orbitals',
            Computer Physics Communications 180, 2175-2196 (2009)

          In addition, many other developments in FHI-aims are likely important for
          your particular application. If so, please cite them. A partial list of references
          is written at the end of this file. Thank you for giving credit to the authors
          of these developments.

          For general information about FHI-aims please find us at

            https://fhi-aims.org

          Online tutorials can be found at

            https://fhi-aims-club.gitlab.io/tutorials/tutorials-overview/

          For any questions about FHI-aims, please visit our slack channel at

            https://fhi-aims.slack.com

          and our main development and support site at

            https://aims-git.rz-berlin.mpg.de .

          The latter site, in particular, has a wiki to collect information, as well
          as an issue tracker to log discussions, suggest improvements, and report issues
          or bugs. https://aims-git.rz-berlin.mpg.de is also the main development site
          of the project and all new and updated code versions can be obtained there.
          Please send an email to aims-coordinators@fhi-berlin.mpg.de and we will add
          you to these sites. They are for you and everyone is welcome there.

------------------------------------------------------------



  Date     :  20240930, Time     :  173503.174
  Time zero on CPU 1             :   0.110925000000000E+00  s.
  Internal wall clock time zero  :           496949703.174  s.

  FHI-aims created a unique identifier for this run for later identification
  aims_uuid : 8F3E877B-0249-49E6-A303-E574555B36C5

  Build configuration of the current instance of FHI-aims
  -------------------------------------------------------
  FHI-aims version      : 240507
  Commit number         : 189b292af
  CMake host system     : Linux-6.7.12-amd64
  CMake version         : 3.29.6
  Fortran compiler      : /opt/software/openmpi-4.1.6_intel/bin/mpif90 (Intel) version 2021.8.0.20221119
  Fortran compiler flags: -O3 -march=core-avx2 -fma -ftz -align array64byte -fomit-frame-pointer
  C compiler            : /usr/bin/cc (GNU) version 13.2.0
  C compiler flags      : -Ofast
  C++ compiler          : /usr/bin/g++ (GNU) version 13.2.0
  C++ compiler flags    : -Ofast
  HIP compiler          :
  HIP compiler flags    :
  HIP GPU arch          :
  Using MPI
  Using ScaLAPACK
  Using LibXC
  Using i-PI
  Using RLSY
  Linking against: /opt/software/intel/oneapi/mkl/2023.0.0/lib/intel64/libmkl_intel_lp64.so
                   /opt/software/intel/oneapi/mkl/2023.0.0/lib/intel64/libmkl_sequential.so
                   /opt/software/intel/oneapi/mkl/2023.0.0/lib/intel64/libmkl_core.so
                   /opt/software/intel/oneapi/mkl/2023.0.0/lib/intel64/libmkl_scalapack_lp64.so
                   /opt/software/intel/oneapi/mkl/2023.0.0/lib/intel64/libmkl_blacs_openmpi_lp64.so

  Using       56 parallel tasks.
  Task        0 on host h10 reporting.
  Task        1 on host h10 reporting.
  Task        2 on host h10 reporting.
  Task        3 on host h10 reporting.
  Task        4 on host h10 reporting.
  Task        5 on host h10 reporting.
  Task        6 on host h10 reporting.
  Task        7 on host h10 reporting.
  Task        8 on host h10 reporting.
  Task        9 on host h10 reporting.
  Task       10 on host h10 reporting.
  Task       11 on host h10 reporting.
  Task       12 on host h10 reporting.
  Task       13 on host h10 reporting.
  Task       14 on host h10 reporting.
  Task       15 on host h10 reporting.
  Task       16 on host h10 reporting.
  Task       17 on host h10 reporting.
  Task       18 on host h10 reporting.
  Task       19 on host h10 reporting.
  Task       20 on host h10 reporting.
  Task       21 on host h10 reporting.
  Task       22 on host h10 reporting.
  Task       23 on host h10 reporting.
  Task       24 on host h10 reporting.
  Task       25 on host h10 reporting.
  Task       26 on host h10 reporting.
  Task       27 on host h10 reporting.
  Task       28 on host h10 reporting.
  Task       29 on host h10 reporting.
  Task       30 on host h10 reporting.
  Task       31 on host h10 reporting.
  Task       32 on host h10 reporting.
  Task       33 on host h10 reporting.
  Task       34 on host h10 reporting.
  Task       35 on host h10 reporting.
  Task       36 on host h10 reporting.
  Task       37 on host h10 reporting.
  Task       38 on host h10 reporting.
  Task       39 on host h10 reporting.
  Task       40 on host h10 reporting.
  Task       41 on host h10 reporting.
  Task       42 on host h10 reporting.
  Task       43 on host h10 reporting.
  Task       44 on host h10 reporting.
  Task       45 on host h10 reporting.
  Task       46 on host h10 reporting.
  Task       47 on host h10 reporting.
  Task       48 on host h10 reporting.
  Task       49 on host h10 reporting.
  Task       50 on host h10 reporting.
  Task       51 on host h10 reporting.
  Task       52 on host h10 reporting.
  Task       53 on host h10 reporting.
  Task       54 on host h10 reporting.
  Task       55 on host h10 reporting.

  Memory overcommitment is allowed on your operating system.

  Obtaining array dimensions for all initial allocations:
  
  -----------------------------------------------------------------------
  Parsing control.in (first pass over file, find array dimensions only).
  The contents of control.in will be repeated verbatim below
  unless switched off by setting 'verbatim_writeout .false.' .
  in the first line of control.in .
  -----------------------------------------------------------------------
  
  # Physical  settings
  xc                 pbe
  spin               none
  relativistic       atomic_zora scalar
  ## SCF  settings
  sc_accuracy_rho     1E-6
  sc_iter_limit        100
  k_grid    7 7 7
  output polarization 1 15 4 4
  output polarization 2 4 15 4
  output polarization 3 4 4 15
  
  
  ################################################################################
  #
  #  FHI-aims code project
  #  VB, Fritz-Haber Institut, 2009
  #
  #  Suggested "light_dense" defaults for O atom (to be pasted into control.in file)
  #  These settings use a light basis set with a dense angular integration grid.
  #  Be sure to double-check any results obtained with these settings for post-processing,
  #  e.g., with the "tight" defaults and larger basis sets.
  #
  ################################################################################
  species        O
  #     global species definitions
  nucleus             8
  mass                15.9994
  #
  l_hartree            8
  #
  cut_pot             3.5  1.5  1.0
  basis_dep_cutoff    1e-4
  #
  radial_base         36 7.0
  radial_multiplier   2
  angular_grids specified
  #      division   0.1817   50
  division   0.3417  110
  division   0.4949  194
  division   0.6251  302
  division   0.8014  434
  #      division   0.8507  590
  #      division   0.8762  770
  #      division   0.9023  974
  #      division   1.2339 1202
  #      outer_grid 974
  outer_grid  434
  ################################################################################
  #
  #  Definition of "minimal" basis
  #
  ################################################################################
  #     valence basis states
  valence      2  s   2.
  valence      2  p   4.
  #     ion occupancy
  ion_occ      2  s   1.
  ion_occ      2  p   3.
  ################################################################################
  #
  #  Suggested additional basis functions. For production calculations,
  #  uncomment them one after another (the most important basis functions are
  #  listed first).
  #
  #  Constructed for dimers: 1.0 A, 1.208 A, 1.5 A, 2.0 A, 3.0 A
  #
  ################################################################################
  #  "First tier" - improvements: -699.05 meV to -159.38 meV
  hydro 2 p 1.8
  hydro 3 d 7.6
  hydro 3 s 6.4
  #  "Second tier" - improvements: -49.91 meV to -5.39 meV
  #     hydro 4 f 11.6
  #     hydro 3 p 6.2
  #     hydro 3 d 5.6
  #     hydro 5 g 17.6
  #     hydro 1 s 0.75
  #  "Third tier" - improvements: -2.83 meV to -0.50 meV
  #     ionic 2 p auto
  #     hydro 4 f 10.8
  #     hydro 4 d 4.7
  #     hydro 2 s 6.8
  #  "Fourth tier" - improvements: -0.40 meV to -0.12 meV
  #     hydro 3 p 5
  #     hydro 3 s 3.3
  #     hydro 5 g 15.6
  #     hydro 4 f 17.6
  #     hydro 4 d 14
  # Further basis functions - -0.08 meV and below
  #     hydro 3 s 2.1
  #     hydro 4 d 11.6
  #     hydro 3 p 16
  #     hydro 2 s 17.2
  ################################################################################
  #
  #  FHI-aims code project
  #  VB, Fritz-Haber Institut, 2009
  #
  #  Suggested "light_dense" defaults for Ti atom (to be pasted into control.in file)
  #  These settings use a light basis set with a dense angular integration grid.
  #  Be sure to double-check any results obtained with these settings for post-processing,
  #  e.g., with the "tight" defaults and larger basis sets.
  #
  ################################################################################
  species        Ti
  #     global species definitions
  nucleus             22
  mass                47.867
  #
  l_hartree            8
  #
  cut_pot             3.5          1.5  1.0
  basis_dep_cutoff    1e-4
  #
  radial_base         48 7.0
  radial_multiplier   2
  angular_grids       specified
  #      division   0.3263   50
  division   0.7218  110
  division   1.0925  194
  division   1.3188  302
  division   1.4940  434
  #      division   1.6583  590
  #      division   1.8821  770
  #      division   2.0961  974
  #      division   3.3854 1202
  #      outer_grid  974
  outer_grid  434
  ################################################################################
  #
  #  Definition of "minimal" basis
  #
  ################################################################################
  #     valence basis states
  valence      4  s   2.
  valence      3  p   6.
  valence      3  d   2.
  #     ion occupancy
  ion_occ      4  s   1.
  ion_occ      3  p   6.
  ion_occ      3  d   1.
  ################################################################################
  #
  #  Suggested additional basis functions. For production calculations,
  #  uncomment them one after another (the most important basis functions are
  #  listed first).
  #
  #  Constructed for dimers: 1.6 A, 1.85 A, 2.5 A, 3.25 A, 4.25 A
  #
  ################################################################################
  #  "First tier" - improvements: -396.25 meV to -19.41 meV
  hydro 4 f 8
  hydro 3 d 2.7
  ionic 4 p auto
  #     hydro 5 g 11.6
  ionic 4 s auto
  #  "Second tier" - improvements: -16.30 meV to -2.03 meV
  #     hydro 3 d 4.4
  #     hydro 6 h 16
  #     hydro 4 f 9.4
  #     hydro 4 p 4.5
  #     hydro 1 s 0.5
  #  "Third tier" - improvements: -6.28 meV to -0.37 meV
  #     hydro 4 d 6.4
  #     hydro 4 f 10
  #     hydro 5 g 12
  #     hydro 2 p 1.7
  #     hydro 6 h 16.4
  #     hydro 4 s 3.8
  #  Further basis functions: -0.45 meV and smaller improvements
  #     hydro 3 d 8.8
  #     hydro 5 p 18
  #     hydro 4 f 22.4
  #     hydro 5 f 7.2  # -0.16 meV
  #     hydro 3 d 2.1  # -0.11 meV
  #     hydro 5 g 7.4  # -0.09 meV
  ################################################################################
  #
  #  FHI-aims code project
  #  VB, Fritz-Haber Institut, 2009
  #
  #  Suggested "light_dense" defaults for Sr atom (to be pasted into control.in file)
  #  These settings use a light basis set with a dense angular integration grid.
  #  Be sure to double-check any results obtained with these settings for post-processing,
  #  e.g., with the "tight" defaults and larger basis sets.
  #
  ################################################################################
  species          Sr
  #     global species definitions
  nucleus        38
  mass           87.62
  #
  l_hartree       8
  #
  cut_pot        4.0  1.5  1.0
  basis_dep_cutoff    1e-4
  #
  radial_base    57  7.0
  radial_multiplier  2
  angular_grids specified
  division   0.6981  110
  division   0.9394  194
  division   1.1230  302
  division   1.2482  434
  #      division   1.3391  590
  #      division   1.4365  770
  #      division   7.0005  974
  #      outer_grid  974
  outer_grid  434
  ################################################################################
  #
  #  Definition of "minimal" basis
  #
  ################################################################################
  #     valence basis states
  valence      5  s   2.
  valence      4  p   6.
  valence      3  d  10.
  #     ion occupancy
  ion_occ      5  s   1.
  ion_occ      4  p   6.
  ion_occ      3  d  10.
  ################################################################################
  #
  #  Suggested additional basis functions. For production calculations,
  #  uncomment them one after another (the most important basis functions are
  #  listed first).
  #
  #  Constructed for dimers: 2.75, 3.50, 4.40, 5.00 A
  #
  ################################################################################
  #  "First tier" - improvements: -289.57 meV to -14.02 meV
  ionic 4 d auto
  ionic 5 p auto
  #     hydro 4 f 5.6
  ionic 5 s auto
  #  "Second tier" - improvements: -4.95 meV to -0.45 meV
  #     hydro 5 g 7.4
  #     hydro 4 d 4.4
  #     hydro 3 p 3.3
  #     hydro 6 h 10.4
  #     hydro 5 s 4.9
  #     hydro 5 f 13.2
  #  "Third tier" - improvements: -0.38 meV to -0.11 meV
  #     hydro 6 p 4.8
  #     hydro 5 f 6
  #     hydro 2 p 1.2
  #     hydro 1 s 0.55
  #     hydro 5 d 3.6
  #  "Fourth tier" - improvements: -0.12 meV and lower.
  #     hydro 5 p 5.2
  #     hydro 4 f 14.8
  #     hydro 5 g 7.6
  #     hydro 4 p 4.5
  #     hydro 5 d 5.4
  #     hydro 6 s 6.8
  
  -----------------------------------------------------------------------
  Completed first pass over input file control.in .
  -----------------------------------------------------------------------
  
  
  -----------------------------------------------------------------------
  Parsing geometry.in (first pass over file, find array dimensions only).
  The contents of geometry.in will be repeated verbatim below
  unless switched off by setting 'verbatim_writeout .false.' .
  in the first line of geometry.in .
  -----------------------------------------------------------------------
  
  #===============================================================================
  # Created using the Atomic Simulation Environment (ASE)
  
  # Mon Sep 30 17:34:24 2024
  
  #=======================================================
  lattice_vector 3.9519588950000002 0.0000000000000000 0.0000000000000000
  lattice_vector 0.0000000000000000 3.9519588950000002 0.0000000000000000
  lattice_vector 0.0000000000000000 0.0000000000000000 3.9519588950000002
  atom 1.9759802774113677 1.9720283185163676 1.9759802774113677 Sr
  atom 0.0000000000000000 0.0000000000000000 0.0000000000000000 Ti
  atom 1.9759802774113677 0.0000000000000000 0.0000000000000000 O
  atom 0.0000000000000000 1.9759802774113677 0.0000000000000000 O
  atom 0.0000000000000000 0.0000000000000000 1.9759802774113677 O
  
  -----------------------------------------------------------------------
  Completed first pass over input file geometry.in .
  -----------------------------------------------------------------------
  

  Basic array size parameters:
  | Number of species                 :        3
  | Number of atoms                   :        5
  | Number of lattice vectors         :        3
  | Max. basis fn. angular momentum   :        3
  | Max. atomic/ionic basis occupied n:        5
  | Max. number of basis fn. types    :        3
  | Max. radial fns per species/type  :        9
  | Max. logarithmic grid size        :     1428
  | Max. radial integration grid size :      115
  | Max. angular integration grid size:      434
  | Max. angular grid division number :        8
  | Radial grid for Hartree potential :     1428
  | Number of spin channels           :        1

------------------------------------------------------------
          Reading file control.in.
------------------------------------------------------------
  XC: Using PBE gradient-corrected functionals.
  Spin treatment: No spin polarisation.
  Scalar relativistic treatment of kinetic energy: on-site free-atom approximation to ZORA.
  Convergence accuracy of self-consistent charge density:  0.1000E-05
  Maximum number of s.-c. iterations  :   100
  Found k-point grid:         7         7         7

  Polarization directive number:    1
  | Calculating polarization along reciprocal lattice vector 1 using   15 k-points parallel to this direction.
  | Full Brillouin zone sampling is thus performed on a    15 x     4 x     4 grid

  Polarization directive number:    2
  | Calculating polarization along reciprocal lattice vector 2 using   15 k-points parallel to this direction.
  | Full Brillouin zone sampling is thus performed on a     4 x    15 x     4 grid

  Polarization directive number:    3
  | Calculating polarization along reciprocal lattice vector 3 using   15 k-points parallel to this direction.
  | Full Brillouin zone sampling is thus performed on a     4 x     4 x    15 grid
 
  Reading configuration options for species O                   .
  | Found nuclear charge :   8.0000
  | Found atomic mass :    15.9994000000000      amu
  | Found l_max for Hartree potential  :   8
  | Found cutoff potl. onset [A], width [A], scale factor :    3.50000    1.50000    1.00000
  | Threshold for basis-dependent cutoff potential is   0.100000E-03
  | Found data for basic radial integration grid :    36 points, outermost radius =    7.000 A
  | Found multiplier for basic radial grid :   2
  | Found angular grid specification: user-specified.
  | Specified grid contains     5 separate shells.
  | Check grid settings after all constraints further below.
  | Found free-atom valence shell :  2 s   2.000
  | Found free-atom valence shell :  2 p   4.000
  | Found free-ion valence shell :  2 s   1.000
  | Found free-ion valence shell :  2 p   3.000
  | Found hydrogenic basis function :  2 p   1.800
  | Found hydrogenic basis function :  3 d   7.600
  | Found hydrogenic basis function :  3 s   6.400
 | Encountered keyword species, ending the description of species O                   .
  Species O                   : Missing cutoff potential type.
  Defaulting to exp(1/x)/(1-x)^2 type cutoff potential.
  Species O : No 'logarithmic' tag. Using default grid for free atom:
  | Default logarithmic grid data [bohr] : 0.1000E-03 0.1000E+03 0.1012E+01
  Species O : On-site basis accuracy parameter (for Gram-Schmidt orthonormalisation) not specified.
  Using default value basis_acc =  0.1000000E-03.
  Species O                   : Using default innermost maximum threshold i_radial=  2 for radial functions.
  Species O                   : Default cutoff onset for free atom density etc. : 0.35000000E+01 AA.
  Species O                   : Basic radial grid will be enhanced according to radial_multiplier =   2, to contain    73 grid points.
 
  Reading configuration options for species Ti                  .
  | Found nuclear charge :  22.0000
  | Found atomic mass :    47.8670000000000      amu
  | Found l_max for Hartree potential  :   8
  | Found cutoff potl. onset [A], width [A], scale factor :    3.50000    1.50000    1.00000
  | Threshold for basis-dependent cutoff potential is   0.100000E-03
  | Found data for basic radial integration grid :    48 points, outermost radius =    7.000 A
  | Found multiplier for basic radial grid :   2
  | Found angular grid specification: user-specified.
  | Specified grid contains     5 separate shells.
  | Check grid settings after all constraints further below.
  | Found free-atom valence shell :  4 s   2.000
  | Found free-atom valence shell :  3 p   6.000
  | Found free-atom valence shell :  3 d   2.000
  | Found free-ion valence shell :  4 s   1.000
  | Found free-ion valence shell :  3 p   6.000
  | Found free-ion valence shell :  3 d   1.000
  | Found hydrogenic basis function :  4 f   8.000
  | Found hydrogenic basis function :  3 d   2.700
  | Found ionic basis function :  4 p , default cutoff radius.
  | Found ionic basis function :  4 s , default cutoff radius.
 | Encountered keyword species, ending the description of species Ti                  .
  Species Ti                  : Missing cutoff potential type.
  Defaulting to exp(1/x)/(1-x)^2 type cutoff potential.
  Species Ti: No 'logarithmic' tag. Using default grid for free atom:
  | Default logarithmic grid data [bohr] : 0.1000E-03 0.1000E+03 0.1012E+01
  | Will include ionic basis functions of  2.0-fold positive Ti                   ion.
  Species Ti: On-site basis accuracy parameter (for Gram-Schmidt orthonormalisation) not specified.
  Using default value basis_acc =  0.1000000E-03.
  Species Ti                  : Using default innermost maximum threshold i_radial=  2 for radial functions.
  Species Ti                  : Default cutoff onset for free atom density etc. : 0.35000000E+01 AA.
  Species Ti                  : Basic radial grid will be enhanced according to radial_multiplier =   2, to contain    97 grid points.
 
  Reading configuration options for species Sr                  .
  | Found nuclear charge :  38.0000
  | Found atomic mass :    87.6200000000000      amu
  | Found l_max for Hartree potential  :   8
  | Found cutoff potl. onset [A], width [A], scale factor :    4.00000    1.50000    1.00000
  | Threshold for basis-dependent cutoff potential is   0.100000E-03
  | Found data for basic radial integration grid :    57 points, outermost radius =    7.000 A
  | Found multiplier for basic radial grid :   2
  | Found angular grid specification: user-specified.
  | Specified grid contains     5 separate shells.
  | Check grid settings after all constraints further below.
  | Found free-atom valence shell :  5 s   2.000
  | Found free-atom valence shell :  4 p   6.000
  | Found free-atom valence shell :  3 d  10.000
  | Found free-ion valence shell :  5 s   1.000
  | Found free-ion valence shell :  4 p   6.000
  | Found free-ion valence shell :  3 d  10.000
  | Found ionic basis function :  4 d , default cutoff radius.
  | Found ionic basis function :  5 p , default cutoff radius.
  | Found ionic basis function :  5 s , default cutoff radius.
  Species Sr                  : Missing cutoff potential type.
  Defaulting to exp(1/x)/(1-x)^2 type cutoff potential.
  Species Sr: No 'logarithmic' tag. Using default grid for free atom:
  | Default logarithmic grid data [bohr] : 0.1000E-03 0.1000E+03 0.1012E+01
  | Will include ionic basis functions of  1.0-fold positive Sr                   ion.
  Species Sr: On-site basis accuracy parameter (for Gram-Schmidt orthonormalisation) not specified.
  Using default value basis_acc =  0.1000000E-03.
  Species Sr                  : Using default innermost maximum threshold i_radial=  2 for radial functions.
  Species Sr                  : Default cutoff onset for free atom density etc. : 0.40000000E+01 AA.
  Species Sr                  : Basic radial grid will be enhanced according to radial_multiplier =   2, to contain   115 grid points.
 
  Finished reading input file 'control.in'.
 
------------------------------------------------------------


------------------------------------------------------------
          Reading geometry description geometry.in.
------------------------------------------------------------
  | The smallest distance between any two atoms is         1.97597862 AA.
  | The first atom of this pair is atom number                      2 .
  | The second atom of this pair is atom number                     3 .
  | Wigner-Seitz cell of the first atom image           0     0     0 .
  | (The Wigner-Seitz cell of the second atom is 0 0 0  by definition.)

  Symmetry information by spglib:
  | Precision set to  0.1E-04
  | Number of Operations  : 8
  | Space group           : 99
  | International         : P4mm     5
  | Schoenflies           : C4v^1
  Input structure read successfully.
  The structure contains        5 atoms,  and a total of         84.000 electrons.

  Input geometry:
  | Unit cell:
  |        3.95195890        0.00000000        0.00000000
  |        0.00000000        3.95195890        0.00000000
  |        0.00000000        0.00000000        3.95195890
  | Atomic structure:
  |       Atom                x [A]            y [A]            z [A]
  |    1: Species Sr            1.97598028        1.97202832        1.97598028
  |    2: Species Ti            0.00000000        0.00000000        0.00000000
  |    3: Species O             1.97598028        0.00000000        0.00000000
  |    4: Species O             0.00000000        1.97598028        0.00000000
  |    5: Species O             0.00000000        0.00000000        1.97598028

  Lattice parameters for 3D lattice (in Angstroms) :     3.951959    3.951959    3.951959
  Angle(s) between unit vectors (in degrees)       :    90.000000   90.000000   90.000000


  Quantities derived from the lattice vectors (in Angstrom^-1):
  | Reciprocal lattice vector 1:  1.589891  0.000000  0.000000
  | Reciprocal lattice vector 2:  0.000000  1.589891  0.000000
  | Reciprocal lattice vector 3:  0.000000  0.000000  1.589891
  | Unit cell volume                               :   0.617216E+02  Angstrom^3

  Fractional coordinates:
                         L1                L2                L3
       atom_frac         0.50000021        0.49900021        0.50000021  Sr
       atom_frac         0.00000000        0.00000000        0.00000000  Ti
       atom_frac         0.50000021        0.00000000        0.00000000  O
       atom_frac         0.00000000        0.50000021        0.00000000  O
       atom_frac         0.00000000        0.00000000        0.50000021  O

  Slab Identifier: This seems to be a bulk system.
 
  Finished reading input file 'geometry.in'.
 

 
  Consistency checks for stacksize environment parameter are next.
 
  | Maximum stacksize for task 0: unlimited
  | Maximum stacksize for task 1: unlimited
  | Maximum stacksize for task 2: unlimited
  | Maximum stacksize for task 3: unlimited
  | Maximum stacksize for task 4: unlimited
  | Maximum stacksize for task 5: unlimited
  | Maximum stacksize for task 6: unlimited
  | Maximum stacksize for task 7: unlimited
  | Maximum stacksize for task 8: unlimited
  | Maximum stacksize for task 9: unlimited
  | Maximum stacksize for task 10: unlimited
  | Maximum stacksize for task 11: unlimited
  | Maximum stacksize for task 12: unlimited
  | Maximum stacksize for task 13: unlimited
  | Maximum stacksize for task 14: unlimited
  | Maximum stacksize for task 15: unlimited
  | Maximum stacksize for task 16: unlimited
  | Maximum stacksize for task 17: unlimited
  | Maximum stacksize for task 18: unlimited
  | Maximum stacksize for task 19: unlimited
  | Maximum stacksize for task 20: unlimited
  | Maximum stacksize for task 21: unlimited
  | Maximum stacksize for task 22: unlimited
  | Maximum stacksize for task 23: unlimited
  | Maximum stacksize for task 24: unlimited
  | Maximum stacksize for task 25: unlimited
  | Maximum stacksize for task 26: unlimited
  | Maximum stacksize for task 27: unlimited
  | Maximum stacksize for task 28: unlimited
  | Maximum stacksize for task 29: unlimited
  | Maximum stacksize for task 30: unlimited
  | Maximum stacksize for task 31: unlimited
  | Maximum stacksize for task 32: unlimited
  | Maximum stacksize for task 33: unlimited
  | Maximum stacksize for task 34: unlimited
  | Maximum stacksize for task 35: unlimited
  | Maximum stacksize for task 36: unlimited
  | Maximum stacksize for task 37: unlimited
  | Maximum stacksize for task 38: unlimited
  | Maximum stacksize for task 39: unlimited
  | Maximum stacksize for task 40: unlimited
  | Maximum stacksize for task 41: unlimited
  | Maximum stacksize for task 42: unlimited
  | Maximum stacksize for task 43: unlimited
  | Maximum stacksize for task 44: unlimited
  | Maximum stacksize for task 45: unlimited
  | Maximum stacksize for task 46: unlimited
  | Maximum stacksize for task 47: unlimited
  | Maximum stacksize for task 48: unlimited
  | Maximum stacksize for task 49: unlimited
  | Maximum stacksize for task 50: unlimited
  | Maximum stacksize for task 51: unlimited
  | Maximum stacksize for task 52: unlimited
  | Maximum stacksize for task 53: unlimited
  | Maximum stacksize for task 54: unlimited
  | Maximum stacksize for task 55: unlimited
  | Current stacksize for task 0: unlimited
  | Current stacksize for task 1: unlimited
  | Current stacksize for task 2: unlimited
  | Current stacksize for task 3: unlimited
  | Current stacksize for task 4: unlimited
  | Current stacksize for task 5: unlimited
  | Current stacksize for task 6: unlimited
  | Current stacksize for task 7: unlimited
  | Current stacksize for task 8: unlimited
  | Current stacksize for task 9: unlimited
  | Current stacksize for task 10: unlimited
  | Current stacksize for task 11: unlimited
  | Current stacksize for task 12: unlimited
  | Current stacksize for task 13: unlimited
  | Current stacksize for task 14: unlimited
  | Current stacksize for task 15: unlimited
  | Current stacksize for task 16: unlimited
  | Current stacksize for task 17: unlimited
  | Current stacksize for task 18: unlimited
  | Current stacksize for task 19: unlimited
  | Current stacksize for task 20: unlimited
  | Current stacksize for task 21: unlimited
  | Current stacksize for task 22: unlimited
  | Current stacksize for task 23: unlimited
  | Current stacksize for task 24: unlimited
  | Current stacksize for task 25: unlimited
  | Current stacksize for task 26: unlimited
  | Current stacksize for task 27: unlimited
  | Current stacksize for task 28: unlimited
  | Current stacksize for task 29: unlimited
  | Current stacksize for task 30: unlimited
  | Current stacksize for task 31: unlimited
  | Current stacksize for task 32: unlimited
  | Current stacksize for task 33: unlimited
  | Current stacksize for task 34: unlimited
  | Current stacksize for task 35: unlimited
  | Current stacksize for task 36: unlimited
  | Current stacksize for task 37: unlimited
  | Current stacksize for task 38: unlimited
  | Current stacksize for task 39: unlimited
  | Current stacksize for task 40: unlimited
  | Current stacksize for task 41: unlimited
  | Current stacksize for task 42: unlimited
  | Current stacksize for task 43: unlimited
  | Current stacksize for task 44: unlimited
  | Current stacksize for task 45: unlimited
  | Current stacksize for task 46: unlimited
  | Current stacksize for task 47: unlimited
  | Current stacksize for task 48: unlimited
  | Current stacksize for task 49: unlimited
  | Current stacksize for task 50: unlimited
  | Current stacksize for task 51: unlimited
  | Current stacksize for task 52: unlimited
  | Current stacksize for task 53: unlimited
  | Current stacksize for task 54: unlimited
  | Current stacksize for task 55: unlimited
 
  Consistency checks for the contents of control.in are next.
 
  MPI_IN_PLACE appears to work with this MPI implementation.
  | Keeping use_mpi_in_place .true. (see manual).
  Target number of points in a grid batch is not set. Defaulting to  100
  Method for grid partitioning is not set. Defaulting to parallel hash+maxmin partitioning.
  Batch size limit is not set. Defaulting to    200
  By default, will store active basis functions for each batch.
  If in need of memory, prune_basis_once .false. can be used to disable this option.
  communication_type for Hartree potential was not specified.
  Defaulting to calc_hartree .
  Defaulting to Pulay charge density mixer.
  Pulay mixer: Number of relevant iterations not set.
  Defaulting to    8 iterations.
  Pulay mixer: Number of initial linear mixing iterations not set.
  Defaulting to    0 iterations.
  Work space size for distributed Hartree potential not set.
  Defaulting to   0.200000E+03 MB.
  Mixing parameter for charge density mixing has not been set.
  Using default: charge_mix_param =     0.0500.
  The mixing parameter will be adjusted in iteration number     2 of the first full s.c.f. cycle only.
  Algorithm-dependent basis array size parameters:
  | n_max_pulay                         :        8
  Presetting      1001 iterations before the initial mixing cycle
  is restarted anyway using the sc_init_iter criterion / keyword.
  Presetting a factor      1.000 between actual scf density residual
  and density convergence criterion sc_accuracy_rho below which sc_init_iter
  takes no effect.
  Calculation of forces was not defined in control.in. No forces will be calculated.
  Geometry relaxation not requested: no relaxation will be performed.
  No accuracy limit for integral partition fn. given. Defaulting to  0.1000E-14.
  No threshold value for u(r) in integrations given. Defaulting to  0.1000E-05.
  No occupation type (smearing scheme) given. Defaulting to Gaussian broadening, width =  0.1000E-01 eV.
  The width will be adjusted in iteration number     2 of the first full s.c.f. cycle only.
  S.C.F. convergence parameters will be adjusted in iteration number     2 of the first full s.c.f. cycle only.
  No accuracy for occupation numbers given. Defaulting to  0.1000E-12.
  No threshold value for occupation numbers given. Defaulting to  0.0000E+00.
  No accuracy for fermi level given. Defaulting to  0.1000E-19.
  Maximum # of iterations to find E_F not set. Defaulting to  200.
  Preferred method for the eigenvalue solver ('KS_method') not specified in 'control.in'.
  Defaulting to serial version, LAPACK (via ELSI), since more k-points than CPUs available.
  Will not use alltoall communication since running on < 1024 CPUs.
  Threshold for basis singularities not set.
  Default threshold for basis singularities:  0.1000E-04
  partition_type (choice of integration weights) for integrals was not specified.
  | Using a version of the partition function of Stratmann and coworkers ('stratmann_sparse').
  | At each grid point, the set of atoms used to build the partition table is smoothly restricted to
  | only those atoms whose free-atom density would be non-zero at that grid point.
  Partitioning for Hartree potential was not defined. Using partition_type for integrals.
  | Adjusted default value of keyword multip_moments_threshold to:       0.10000000E-11
  | This value may affect high angular momentum components of the Hartree potential in periodic systems.
  No q(lm)/r^(l+1) cutoff set for long-range Hartree potential.
  | Using default value of  0.100000E-09 .
  | Verify using the multipole_threshold keyword.
  Defaulting to new monopole extrapolation.
  Density update method: automatic selection selected.
  Using density matrix based charge density update.
  Using density matrix based charge density update.
  Using packed matrix style: index .
  Defaulting to use time-reversal symmetry for k-point grid.
  Charge integration errors on the 3D integration grid will be compensated
  by explicit normalization and distribution of residual charges.
  Use the "compensate_multipole_errors" flag to change this behaviour.
  Set 'collect_eigenvectors' to be '.true.' for all serial calculations. This is mandatory.
  Set 'collect_eigenvectors' to be '.true.' for KS_method lapack_fast and serial.
  Found potential conflicts with setting 'use_local_index' for this calculation. Will not set it.
 
  Consistency checks for the contents of geometry.in are next.
 

  Range separation radius for Ewald summation (hartree_convergence_parameter):      3.23806991 bohr.
  Number of empty states per atom not set in control.in - providing a guess from actual geometry.
  | Total number of empty states used during s.c.f. cycle:       20
  If you use a very high smearing, use empty_states (per atom!) in control.in to increase this value.

  Structure-dependent array size parameters: 
  | Maximum number of distinct radial functions  :       29
  | Maximum number of basis functions            :      101
  | Number of Kohn-Sham states (occupied + empty):       62
------------------------------------------------------------
  After read_input_data [GB]:   1042.08

  Performing system and environment tests:
  | Environment variable OMP_NUM_THREADS correctly set to 1.
  | Checking for ScaLAPACK...
  | Testing pdtran()...
  | All pdtran() tests passed.
  After prepare_system [GB]:   1041.23

------------------------------------------------------------
          Preparing all fixed parts of the calculation.
------------------------------------------------------------
  Determining machine precision:
    2.225073858507201E-308
  Setting up grids for atomic and cluster calculations.

  Creating wave function, potential, and density for free atoms.
  Runtime choices for atomic solver:
  | atomic solver xc        : PBE
  | compute density gradient: 1
  | compute kinetic density : F

  Species: O

  List of occupied orbitals and eigenvalues:
    n    l              occ      energy [Ha]    energy [eV]
    1    0           2.0000       -18.926989      -515.0296
    2    0           2.0000        -0.880247       -23.9527
    2    1           4.0000        -0.331514        -9.0210


  Species: Ti

  List of occupied orbitals and eigenvalues:
    n    l              occ      energy [Ha]    energy [eV]
    1    0           2.0000      -179.959082     -4896.9358
    2    0           2.0000       -19.727662      -536.8170
    3    0           2.0000        -2.283029       -62.1244
    4    0           2.0000        -0.148384        -4.0377
    2    1           6.0000       -16.317278      -444.0157
    3    1           6.0000        -1.409348       -38.3503
    3    2           2.0000        -0.139340        -3.7916


  Species: Sr

  List of occupied orbitals and eigenvalues:
    n    l              occ      energy [Ha]    energy [eV]
    1    0           2.0000      -596.619856    -16234.8523
    2    0           2.0000       -79.531074     -2164.1506
    3    0           2.0000       -12.248744      -333.3053
    4    0           2.0000        -1.481618       -40.3169
    5    0           2.0000        -0.112299        -3.0558
    2    1           6.0000       -70.646948     -1922.4013
    3    1           6.0000        -9.392951      -255.5952
    4    1           6.0000        -0.817715       -22.2512
    3    2          10.0000        -4.684122      -127.4614


  Adding cutoff potential to free-atom effective potential.
  Creating fixed part of basis set: Ionic, confined, hydrogenic.
 
  O                    hydrogenic:
 
  List of hydrogenic basis orbitals: 
    n    l      effective z      eigenvalue [eV]  inner max. [A]     outer max. [A]     outer radius [A]   
    2    1         1.800000       -10.9749           1.164242           1.164242           4.578029
    3    2         7.600000       -87.3180           0.624125           0.624125           3.251020
    3    0         6.400000       -61.9207           0.061167           1.081902           4.001998
 
 
  Ti                   ion:

  List of free ionic orbitals and eigenvalues:
    n    l      energy [Ha]    energy [eV]
    1    0      -180.819616     -4920.3521
    2    0       -20.608761      -560.7929
    3    0        -3.115729       -84.7833
    4    0        -0.697188       -18.9715
    2    1       -17.196209      -467.9327
    3    1        -2.231296       -60.7167
    3    2        -0.911363       -24.7995


  List of ionic basis orbitals and eigenvalues:
    n    l      energy [Ha]    energy [eV]    outer radius [A]
    4    1        -0.517739       -14.0884       4.592117
    4    0        -0.696824       -18.9615       4.536321

 
  Ti                   hydrogenic:
 
  List of hydrogenic basis orbitals: 
    n    l      effective z      eigenvalue [eV]  inner max. [A]     outer max. [A]     outer radius [A]   
    4    3         8.000000       -54.4222           1.059019           1.059019           4.267343
    3    2         2.700000       -10.7798           1.726925           1.726925           4.592117
 
 
  Sr                   ion:

  List of free ionic orbitals and eigenvalues:
    n    l      energy [Ha]    energy [eV]
    1    0      -596.882744    -16242.0059
    2    0       -79.789776     -2171.1903
    3    0       -12.506389      -340.3162
    4    0        -1.735484       -47.2249
    5    0        -0.306751        -8.3471
    2    1       -70.905624     -1929.4402
    3    1        -9.650538      -262.6045
    4    1        -1.069688       -29.1077
    3    2        -4.941615      -134.4682


  List of ionic basis orbitals and eigenvalues:
    n    l      energy [Ha]    energy [eV]    outer radius [A]
    4    2        -0.248728        -6.7682       5.082085
    5    1        -0.187924        -5.1137       5.082085
    5    0        -0.304175        -8.2770       5.082085

  Creating atomic-like basis functions for current effective potential.

  Species O                   :

  List of atomic basis orbitals and eigenvalues:
    n    l      energy [Ha]    energy [eV]    outer radius [A]
    1    0       -18.926989      -515.0296       1.415765
    2    0        -0.880247       -23.9527       4.413171
    2    1        -0.331514        -9.0210       4.522403


  Species Ti                  :

  List of atomic basis orbitals and eigenvalues:
    n    l      energy [Ha]    energy [eV]    outer radius [A]
    1    0      -179.959082     -4896.9358       0.490254
    2    0       -19.727662      -536.8170       1.491292
    3    0        -2.283029       -62.1244       4.014314
    4    0        -0.148384        -4.0377       4.592117
    2    1       -16.317278      -444.0157       1.585290
    3    1        -1.409348       -38.3503       4.267343
    3    2        -0.139340        -3.7916       4.536321


  Species Sr                  :

  List of atomic basis orbitals and eigenvalues:
    n    l      energy [Ha]    energy [eV]    outer radius [A]
    1    0      -596.619856    -16234.8523       0.273611
    2    0       -79.531074     -2164.1506       0.773426
    3    0       -12.248744      -333.3053       1.934692
    4    0        -1.481618       -40.3169       4.665275
    5    0        -0.112299        -3.0558       5.082085
    2    1       -70.646948     -1922.4013       0.792569
    3    1        -9.392951      -255.5952       2.133466
    4    1        -0.817715       -22.2512       4.899077
    3    2        -4.684122      -127.4614       2.791830

  Assembling full basis from fixed parts.
  | Species O :   atomic orbital   1 s accepted.
  | Species O :    hydro orbital   3 s accepted.
  | Species O :   atomic orbital   2 s accepted.
  | Species O :   atomic orbital   2 p accepted.
  | Species O :    hydro orbital   2 p accepted.
  | Species O :    hydro orbital   3 d accepted.
  | Species Ti :   atomic orbital   1 s accepted.
  | Species Ti :   atomic orbital   2 s accepted.
  | Species Ti :   atomic orbital   3 s accepted.
  | Species Ti :    ionic orbital   4 s accepted.
  | Species Ti :   atomic orbital   4 s accepted.
  | Species Ti :   atomic orbital   2 p accepted.
  | Species Ti :   atomic orbital   3 p accepted.
  | Species Ti :    ionic orbital   4 p accepted.
  | Species Ti :   atomic orbital   3 d accepted.
  | Species Ti :    hydro orbital   3 d accepted.
  | Species Ti :    hydro orbital   4 f accepted.
  | Species Sr :   atomic orbital   1 s accepted.
  | Species Sr :   atomic orbital   2 s accepted.
  | Species Sr :   atomic orbital   3 s accepted.
  | Species Sr :   atomic orbital   4 s accepted.
  | Species Sr :   atomic orbital   5 s accepted.
  | Species Sr :    ionic orbital   5 s accepted.
  | Species Sr :   atomic orbital   2 p accepted.
  | Species Sr :   atomic orbital   3 p accepted.
  | Species Sr :   atomic orbital   4 p accepted.
  | Species Sr :    ionic orbital   5 p accepted.
  | Species Sr :   atomic orbital   3 d accepted.
  | Species Sr :    ionic orbital   4 d accepted.
 
  Basis size parameters after reduction:
  | Total number of radial functions:       29
  | Total number of basis functions :      101
 
  Per-task memory consumption for arrays in subroutine allocate_ext:
  |          10.605992MB.
  Testing on-site integration grid accuracy.
  |  Species  Function  <phi|h_atom|phi> (log., in eV)  <phi|h_atom|phi> (rad., in eV)
           1        1               -515.0295626295               -515.0295580644
           1        2                 15.1698434419                 15.1698339558
           1        3                -21.6038822678                -21.6038863903
           1        4                 -9.0211123393                 -9.0211027297
           1        5                  8.3047696391                  8.3059136066
           1        6                 45.8428042125                 45.8428040962
           2        7              -4896.9357674450              -4896.9356181216
           2        8               -536.8170048508               -536.8170021456
           2        9                -62.1243896260                -62.1243892294
           2       10                 -3.2653235630                 -3.2653158765
           2       11                  6.7987747276                  6.7997252160
           2       12               -444.0157161949               -444.0157156358
           2       13                -38.3503235548                -38.3503233454
           2       14                  0.2923930877                  0.2924411799
           2       15                 -3.7933400649                 -3.7933323195
           2       16                  6.3288803616                  6.3291404678
           2       17                 27.8451455747                 27.8451428382
           3       18             -16234.8523152110             -16234.8512649968
           3       19              -2164.1506395857              -2164.1506207656
           3       20               -333.3052958014               -333.3052936220
           3       21                -40.3168869246                -40.3168864907
           3       22                 -3.0807610256                 -3.0814300998
           3       23                  5.6015843274                  5.5966615894
           3       24              -1922.4012774435              -1922.4012751597
           3       25               -255.5951903464               -255.5951891877
           3       26                -22.2511556427                -22.2511554063
           3       27                 -0.3184426169                 -0.3196251190
           3       28               -127.4614483800               -127.4614480625
           3       29                 -0.6123166222                 -0.6124279659

  Preparing densities etc. for the partition functions (integrals / Hartree potential).

  Preparations completed.
  max(cpu_time)          :      0.404 s.
  Wall clock time (cpu1) :      0.402 s.
------------------------------------------------------------
  After prepare_scf [GB]:   1027.33

  Initializing index lists of integration centers etc. from given atomic structure:
  Mapping all atomic coordinates to central unit cell.

  Initializing the k-points
  Using symmetry for reducing the k-points
  | k-points reduced from:      343 to      172
  | Number of k-points                             :       172
  The eigenvectors in the calculations are COMPLEX.
  | K-points in task   0:         3
  | K-points in task   1:         4
  | K-points in task   2:         4
  | K-points in task   3:         4
  | K-points in task   4:         4
  | K-points in task   5:         3
  | K-points in task   6:         3
  | K-points in task   7:         3
  | K-points in task   8:         3
  | K-points in task   9:         3
  | K-points in task  10:         3
  | K-points in task  11:         3
  | K-points in task  12:         3
  | K-points in task  13:         3
  | K-points in task  14:         3
  | K-points in task  15:         3
  | K-points in task  16:         3
  | K-points in task  17:         3
  | K-points in task  18:         3
  | K-points in task  19:         3
  | K-points in task  20:         3
  | K-points in task  21:         3
  | K-points in task  22:         3
  | K-points in task  23:         3
  | K-points in task  24:         3
  | K-points in task  25:         3
  | K-points in task  26:         3
  | K-points in task  27:         3
  | K-points in task  28:         3
  | K-points in task  29:         3
  | K-points in task  30:         3
  | K-points in task  31:         3
  | K-points in task  32:         3
  | K-points in task  33:         3
  | K-points in task  34:         3
  | K-points in task  35:         3
  | K-points in task  36:         3
  | K-points in task  37:         3
  | K-points in task  38:         3
  | K-points in task  39:         3
  | K-points in task  40:         3
  | K-points in task  41:         3
  | K-points in task  42:         3
  | K-points in task  43:         3
  | K-points in task  44:         3
  | K-points in task  45:         3
  | K-points in task  46:         3
  | K-points in task  47:         3
  | K-points in task  48:         3
  | K-points in task  49:         3
  | K-points in task  50:         3
  | K-points in task  51:         3
  | K-points in task  52:         3
  | K-points in task  53:         3
  | K-points in task  54:         3
  | K-points in task  55:         3
  | Number of basis functions in the Hamiltonian integrals :      2263
  | Number of basis functions in a single unit cell        :       101
  | Number of centers in hartree potential         :      1065
  | Number of centers in hartree multipole         :       671
  | Number of centers in electron density summation:       434
  | Number of centers in basis integrals           :       528
  | Number of centers in integrals                 :       191
  | Number of centers in hamiltonian               :       569
  | Consuming        430 KiB for k_phase.
  | Number of super-cells (origin) [n_cells]                     :         729
  | Number of super-cells (after PM_index) [n_cells]             :         160
  | Number of super-cells in hamiltonian [n_cells_in_hamiltonian]:         160
  | Size of matrix packed + index [n_hamiltonian_matrix_size] :      192256
  After initialize_bc_dependent_lists [GB]:   1027.16

------------------------------------------------------------
          Begin self-consistency loop: Initialization.

          Date     :  20240930, Time     :  173503.672
------------------------------------------------------------
  Available memory per node after initialize_hartree_non_periodic_ewald [GB]:   1027.15
  | Estimated reciprocal-space cutoff momentum G_max:         3.21154829 bohr^-1 .
  | Reciprocal lattice points for long-range Hartree potential:     250
  Available memory per node after initialize_recip_hartree_potential [GB]:   1027.15
  Available memory per node after initialize_scalapack [GB]:   1027.15
  Available memory per node after aims_elsi_init_scf [GB]:   1027.15
  Available memory per node after initialize_fixed_grids [GB]:   1027.13
  Partitioning the integration grid into batches with parallel hashing+maxmin method.
  | Number of batches:     1450
  | Maximal batch size:     130
  | Minimal batch size:      51
  | Average batch size:      78.404
  | Standard deviation of batch sizes:      17.458

  Integration load balanced across    56 MPI tasks.
  Work distribution over tasks is as follows:
  Task     0 has       2005 integration points.
  Task     1 has       2021 integration points.
  Task     2 has       2014 integration points.
  Task     3 has       2038 integration points.
  Task     4 has       2010 integration points.
  Task     5 has       2046 integration points.
  Task     6 has       2015 integration points.
  Task     7 has       2005 integration points.
  Task     8 has       2040 integration points.
  Task     9 has       2055 integration points.
  Task    10 has       2013 integration points.
  Task    11 has       2038 integration points.
  Task    12 has       2016 integration points.
  Task    13 has       2129 integration points.
  Task    14 has       2037 integration points.
  Task    15 has       2042 integration points.
  Task    16 has       2008 integration points.
  Task    17 has       2048 integration points.
  Task    18 has       2047 integration points.
  Task    19 has       2000 integration points.
  Task    20 has       2011 integration points.
  Task    21 has       2010 integration points.
  Task    22 has       2041 integration points.
  Task    23 has       2040 integration points.
  Task    24 has       2000 integration points.
  Task    25 has       2044 integration points.
  Task    26 has       2009 integration points.
  Task    27 has       2009 integration points.
  Task    28 has       2006 integration points.
  Task    29 has       2012 integration points.
  Task    30 has       2012 integration points.
  Task    31 has       2003 integration points.
  Task    32 has       2045 integration points.
  Task    33 has       2056 integration points.
  Task    34 has       2125 integration points.
  Task    35 has       2018 integration points.
  Task    36 has       2045 integration points.
  Task    37 has       2050 integration points.
  Task    38 has       2059 integration points.
  Task    39 has       2012 integration points.
  Task    40 has       2019 integration points.
  Task    41 has       2062 integration points.
  Task    42 has       2048 integration points.
  Task    43 has       2032 integration points.
  Task    44 has       2042 integration points.
  Task    45 has       2016 integration points.
  Task    46 has       2011 integration points.
  Task    47 has       2041 integration points.
  Task    48 has       2018 integration points.
  Task    49 has       2015 integration points.
  Task    50 has       2017 integration points.
  Task    51 has       2040 integration points.
  Task    52 has       2010 integration points.
  Task    53 has       2058 integration points.
  Task    54 has       2009 integration points.
  Task    55 has       2014 integration points.
  Available memory per node after partition_grid [GB]:   1027.10
  Initializing partition tables, free-atom densities, potentials, etc. across the integration grid (initialize_grid_storage).
  | initialize_grid_storage: Actual outermost partition radius vs. multipole_radius_free
  | (-- VB: in principle, multipole_radius_free should be larger, hence this output)
  | Species        1: Confinement radius =              4.999999999999999 AA, multipole_radius_free =              5.048384829883283 AA.
  | Species        1: outer_partition_radius set to              5.048384829883283 AA .
  | Species        2: Confinement radius =              4.999999999999999 AA, multipole_radius_free =              5.002391649902235 AA.
  | Species        2: outer_partition_radius set to              5.002391649902235 AA .
  | Species        3: Confinement radius =              5.500000000000000 AA, multipole_radius_free =              5.536134816023843 AA.
  | Species        3: outer_partition_radius set to              5.536134816023843 AA .
  | The sparse table of interatomic distances needs       2921.33 kbyte instead of      2230.27 kbyte of memory.
  | Using the partition_type stratmann_smoother will reduce your memory usage.
  | Net number of integration points:   113686
  | of which are non-zero points    :    84600
  | Numerical average free-atom electrostatic potential    :    -19.45735192 eV
  Available memory per node after initialize_grid_storage_p1 [GB]:   1026.71
  Renormalizing the initial density to the exact electron count on the 3D integration grid.
  | Initial density: Formal number of electrons (from input files) :      84.0000000000
  | Integrated number of electrons on 3D grid     :      84.0010830795
  | Charge integration error                      :       0.0010830795
  | Normalization factor for density and gradient :       0.9999871064
  Renormalizing the free-atom superposition density to the exact electron count on the 3D integration grid.
  | Formal number of electrons (from input files) :      84.0000000000
  | Integrated number of electrons on 3D grid     :      84.0010830795
  | Charge integration error                      :       0.0010830795
  | Normalization factor for density and gradient :       0.9999871064
  Obtaining max. number of non-zero basis functions in each batch (get_n_compute_maxes).
  | Maximal number of non-zero basis functions:      653 in task     0
  | Maximal number of non-zero basis functions:      642 in task     1
  | Maximal number of non-zero basis functions:      645 in task     2
  | Maximal number of non-zero basis functions:      644 in task     3
  | Maximal number of non-zero basis functions:      631 in task     4
  | Maximal number of non-zero basis functions:      633 in task     5
  | Maximal number of non-zero basis functions:      641 in task     6
  | Maximal number of non-zero basis functions:      665 in task     7
  | Maximal number of non-zero basis functions:      645 in task     8
  | Maximal number of non-zero basis functions:      647 in task     9
  | Maximal number of non-zero basis functions:      661 in task    10
  | Maximal number of non-zero basis functions:      651 in task    11
  | Maximal number of non-zero basis functions:      649 in task    12
  | Maximal number of non-zero basis functions:      648 in task    13
  | Maximal number of non-zero basis functions:      650 in task    14
  | Maximal number of non-zero basis functions:      660 in task    15
  | Maximal number of non-zero basis functions:      661 in task    16
  | Maximal number of non-zero basis functions:      663 in task    17
  | Maximal number of non-zero basis functions:      650 in task    18
  | Maximal number of non-zero basis functions:      656 in task    19
  | Maximal number of non-zero basis functions:      642 in task    20
  | Maximal number of non-zero basis functions:      651 in task    21
  | Maximal number of non-zero basis functions:      653 in task    22
  | Maximal number of non-zero basis functions:      629 in task    23
  | Maximal number of non-zero basis functions:      663 in task    24
  | Maximal number of non-zero basis functions:      663 in task    25
  | Maximal number of non-zero basis functions:      642 in task    26
  | Maximal number of non-zero basis functions:      644 in task    27
  | Maximal number of non-zero basis functions:      649 in task    28
  | Maximal number of non-zero basis functions:      650 in task    29
  | Maximal number of non-zero basis functions:      644 in task    30
  | Maximal number of non-zero basis functions:      655 in task    31
  | Maximal number of non-zero basis functions:      661 in task    32
  | Maximal number of non-zero basis functions:      637 in task    33
  | Maximal number of non-zero basis functions:      637 in task    34
  | Maximal number of non-zero basis functions:      653 in task    35
  | Maximal number of non-zero basis functions:      647 in task    36
  | Maximal number of non-zero basis functions:      657 in task    37
  | Maximal number of non-zero basis functions:      651 in task    38
  | Maximal number of non-zero basis functions:      659 in task    39
  | Maximal number of non-zero basis functions:      657 in task    40
  | Maximal number of non-zero basis functions:      648 in task    41
  | Maximal number of non-zero basis functions:      654 in task    42
  | Maximal number of non-zero basis functions:      663 in task    43
  | Maximal number of non-zero basis functions:      645 in task    44
  | Maximal number of non-zero basis functions:      664 in task    45
  | Maximal number of non-zero basis functions:      653 in task    46
  | Maximal number of non-zero basis functions:      661 in task    47
  | Maximal number of non-zero basis functions:      647 in task    48
  | Maximal number of non-zero basis functions:      653 in task    49
  | Maximal number of non-zero basis functions:      666 in task    50
  | Maximal number of non-zero basis functions:      662 in task    51
  | Maximal number of non-zero basis functions:      649 in task    52
  | Maximal number of non-zero basis functions:      646 in task    53
  | Maximal number of non-zero basis functions:      650 in task    54
  | Maximal number of non-zero basis functions:      652 in task    55
  Available memory per node after get_n_compute_maxes_p1 [GB]:   1026.69
  Allocating        0.287 MB for KS_eigenvector_complex
  Available memory per node after allocate_matrices [GB]:   1026.69
  Available memory per node after init_comm_sparse_local_matrix_scalapack [GB]:   1026.69
  Integrating Hamiltonian matrix: batch-based integration.
  Time summed over all CPUs for integration: real work        8.642 s, elapsed        9.166 s
  Available memory per node after integrate hamiltonian matrix [GB]:   1025.21
  Integrating overlap matrix.
  Time summed over all CPUs for integration: real work        6.470 s, elapsed        7.004 s
  Available memory per node after integrate ovlp matrix [GB]:   1024.13
  Available memory per node after ASI_callbacks invoke [GB]:   1024.13
  Available memory per node after save_overlap_scalapack [GB]:   1024.13

  Updating Kohn-Sham eigenvalues and eigenvectors using ELSI and the (modified) LAPACK eigensolver.
  Singularity check in k-point 56, task 0 (analysis for other k-points/tasks may follow below):
  Overlap matrix is not singular
  | Lowest and highest eigenvalues :  0.6485E-03,  0.8038E+01
  Finished singularity check of overlap matrix
  | Time :     0.002 s
  Starting LAPACK eigensolver
  Finished Cholesky decomposition
  | Time :     0.000 s
  Finished transformation to standard eigenproblem
  | Time :     0.001 s
  Finished solving standard eigenproblem
  | Time :     0.002 s
  Finished back-transformation of eigenvectors
  | Time :     0.000 s

  Obtaining occupation numbers and electronic chemical potential using ELSI.
  | Note that, for insulating systems, the printed 'chemical potential' value is not uniquely defined.
  | It can be anywhere in the energy gap, as long as it correctly separates occupied and unoccupied states.
  | In systems with a gap, the physically relevant chemical potential is the VBM or HOMO.

  | Chemical potential (Fermi level):    -5.91775490 eV
  Available memory per node after advance_KS_solution [GB]:   1024.00
  Writing Kohn-Sham eigenvalues.
  K-point:       1 at    0.000000    0.000000    0.000000 (in units of recip. lattice)

  State    Occupation    Eigenvalue [Ha]    Eigenvalue [eV]
      1       2.00000        -596.621144       -16234.88734
      2       2.00000        -179.974315        -4897.35028
      3       2.00000         -79.532753        -2164.19632
      4       2.00000         -70.648637        -1922.44724
      5       2.00000         -70.648637        -1922.44724
      6       2.00000         -70.648637        -1922.44724
      7       2.00000         -19.744268         -537.26887
      8       2.00000         -19.031696         -517.87880
      9       2.00000         -19.031696         -517.87880
     10       2.00000         -19.031695         -517.87877
     11       2.00000         -16.333648         -444.46118
     12       2.00000         -16.333648         -444.46118
     13       2.00000         -16.333648         -444.46118
     14       2.00000         -12.251097         -333.36932
     15       2.00000          -9.395349         -255.66046
     16       2.00000          -9.395349         -255.66046
     17       2.00000          -9.395349         -255.66046
     18       2.00000          -4.686583         -127.52842
     19       2.00000          -4.686583         -127.52842
     20       2.00000          -4.686583         -127.52842
     21       2.00000          -4.686573         -127.52814
     22       2.00000          -4.686573         -127.52814
     23       2.00000          -2.316899          -63.04604
     24       2.00000          -1.494410          -40.66498
     25       2.00000          -1.452868          -39.53454
     26       2.00000          -1.452868          -39.53454
     27       2.00000          -1.452868          -39.53454
     28       2.00000          -1.057884          -28.78649
     29       2.00000          -1.030369          -28.03776
     30       2.00000          -1.030368          -28.03774
     31       2.00000          -0.836624          -22.76570
     32       2.00000          -0.836624          -22.76570
     33       2.00000          -0.836623          -22.76568
     34       2.00000          -0.510150          -13.88190
     35       2.00000          -0.510150          -13.88189
     36       2.00000          -0.510150          -13.88189
     37       2.00000          -0.464772          -12.64710
     38       2.00000          -0.464772          -12.64709
     39       2.00000          -0.464772          -12.64709
     40       2.00000          -0.444772          -12.10287
     41       2.00000          -0.444772          -12.10287
     42       2.00000          -0.444772          -12.10286
     43       0.00000          -0.215831           -5.87305
     44       0.00000          -0.215830           -5.87303
     45       0.00000          -0.215830           -5.87303
     46       0.00000          -0.139409           -3.79350
     47       0.00000          -0.128079           -3.48522
     48       0.00000          -0.128079           -3.48520
     49       0.00000          -0.115754           -3.14983
     50       0.00000          -0.115754           -3.14983
     51       0.00000           0.003579            0.09738
     52       0.00000           0.003580            0.09741
     53       0.00000           0.003580            0.09741
     54       0.00000           0.236340            6.43113
     55       0.00000           0.243490            6.62569
     56       0.00000           0.243490            6.62569
     57       0.00000           0.243502            6.62603
     58       0.00000           0.503023           13.68795
     59       0.00000           0.503023           13.68795
     60       0.00000           0.503029           13.68812
     61       0.00000           0.644374           17.53431
     62       0.00000           0.644595           17.54032

  What follows are estimated values for band gap, HOMO, LUMO, etc.
  | They are estimated on a discrete k-point grid and not necessarily exact.
  | For converged numbers, create a DOS and/or band structure plot on a denser k-grid.

  Highest occupied state (VBM) at    -11.80188939 eV (relative to internal zero)
  | Occupation number:      2.00000000
  | K-point:     124 at    0.428571    0.571429    0.428571 (in units of recip. lattice)

  Lowest unoccupied state (CBM) at    -5.87305159 eV (relative to internal zero)
  | Occupation number:      0.00000000
  | K-point:       1 at    0.000000    0.000000    0.000000 (in units of recip. lattice)

  ESTIMATED overall HOMO-LUMO gap:      5.92883780 eV between HOMO at k-point 124 and LUMO at k-point 1
  | This appears to be an indirect band gap.
  | Smallest direct gap :      6.22980889 eV for k_point 1 at    0.000000    0.000000    0.000000 (in units of recip. lattice)
  The gap value is above 0.2 eV. Unless you are using a very sparse k-point grid,
  this system is most likely an insulator or a semiconductor.
  Calculating total energy contributions from superposition of free atom densities.

  Total energy components:
  | Sum of eigenvalues            :       -2552.03154334 Ha      -69444.31158193 eV
  | XC energy correction          :        -173.20329585 Ha       -4713.10148000 eV
  | XC potential correction       :         224.87986754 Ha        6119.29254207 eV
  | Free-atom electrostatic energy:       -1786.91301493 Ha      -48624.37711724 eV
  | Hartree energy correction     :           0.00000000 Ha           0.00000000 eV
  | Entropy correction            :          -0.00000000 Ha          -0.00000000 eV
  | ---------------------------
  | Total energy                  :       -4287.26798657 Ha     -116662.49763710 eV
  | Total energy, T -> 0          :       -4287.26798657 Ha     -116662.49763710 eV  <-- do not rely on this value for anything but (periodic) metals
  | Electronic free energy        :       -4287.26798657 Ha     -116662.49763710 eV

  Derived energy quantities:
  | Kinetic energy                :        4375.49210001 Ha      119063.19791013 eV
  | Electrostatic energy          :       -8489.55679073 Ha     -231012.59406722 eV
  | Energy correction for multipole
  | error in Hartree potential    :           0.00000000 Ha           0.00000000 eV
  | Sum of eigenvalues per atom                           :      -13888.86231639 eV
  | Total energy (T->0) per atom                          :      -23332.49952742 eV  <-- do not rely on this value for anything but (periodic) metals
  | Electronic free energy per atom                       :      -23332.49952742 eV
  Initialize hartree_potential_storage
  Max. number of atoms included in rho_multipole:            5

  End scf initialization - timings             :  max(cpu_time)    wall_clock(cpu1)
  | Time for scf. initialization                :        0.479 s           0.479 s
  | Boundary condition initialization           :        0.043 s           0.042 s
  | Integration                                 :        0.311 s           0.311 s
  | Solution of K.-S. eqns.                     :        0.022 s           0.022 s
  | Grid partitioning                           :        0.037 s           0.036 s
  | Preloading free-atom quantities on grid     :        0.095 s           0.094 s
  | Free-atom superposition energy              :        0.010 s           0.010 s
  | Total energy evaluation                     :        0.000 s           0.001 s

  Partial memory accounting:
  | Current value for overall tracked memory usage:
  |   Minimum:        3.983 MB (on task  0)
  |   Maximum:        4.078 MB (on task  1)
  |   Average:        3.989 MB
  | Peak value for overall tracked memory usage:
  |   Minimum:        8.887 MB (on task 23 after allocating wave)
  |   Maximum:        9.364 MB (on task 50 after allocating wave)
  |   Average:        9.174 MB
  | Largest tracked array allocation so far:
  |   Minimum:        3.019 MB (hamiltonian_shell on task 23)
  |   Maximum:        3.384 MB (hamiltonian_shell on task 50)
  |   Average:        3.233 MB
  Note:  These values currently only include a subset of arrays which are explicitly tracked.
  The "true" memory usage will be greater.
------------------------------------------------------------
  Available memory after initialize_scf [GB]:   1023.61
  Available memory after allocating mixing [GB]:   1023.60
  Evaluating new KS density using the density matrix
  Evaluating density matrix
  Time summed over all CPUs for getting density from density matrix: real work       16.713 s, elapsed       17.572 s
  Integration grid: deviation in total charge (<rho> - N_e) =   2.216893E-12

  Time for density update prior                :  max(cpu_time)    wall_clock(cpu1)
  | self-consistency iterative process          :        0.326 s           0.326 s
  Available memory before start of SCF loop [GB]:   1022.48

------------------------------------------------------------
          Begin self-consistency iteration #    1

  Date     :  20240930, Time     :  173504.478
------------------------------------------------------------
  Pulay mixing of updated and previous charge densities.
  Available memory per node after mixing [GB]:   1022.47
  Renormalizing the density to the exact electron count on the 3D integration grid.
  | Formal number of electrons (from input files) :      84.0000000000
  | Integrated number of electrons on 3D grid     :      84.0000000000
  | Charge integration error                      :       0.0000000000
  | Normalization factor for density and gradient :       1.0000000000

  Evaluating partitioned Hartree potential by multipole expansion.
  | Original multipole sum: apparent total charge =   0.182638E-14
  | Sum of charges compensated after spline to logarithmic grids =  -0.414304E-07
  | Analytical far-field extrapolation by fixed multipoles:
  | Hartree multipole sum: apparent total charge =   0.198012E-14
  Summing up the Hartree potential.
  Time summed over all CPUs for potential: real work        0.047 s, elapsed        0.050 s
  | RMS charge density error from multipole expansion :   0.355772E-03
  | Average real-space part of the electrostatic potential :      0.06979523 eV

  Integrating Hamiltonian matrix: batch-based integration.
  Time summed over all CPUs for integration: real work        8.480 s, elapsed        9.008 s

  Updating Kohn-Sham eigenvalues and eigenvectors using ELSI and the (modified) LAPACK eigensolver.
  Starting LAPACK eigensolver
  Finished Cholesky decomposition
  | Time :     0.000 s
  Finished transformation to standard eigenproblem
  | Time :     0.000 s
  Finished solving standard eigenproblem
  | Time :     0.001 s
  Finished back-transformation of eigenvectors
  | Time :     0.000 s

  Obtaining occupation numbers and electronic chemical potential using ELSI.
  | Note that, for insulating systems, the printed 'chemical potential' value is not uniquely defined.
  | It can be anywhere in the energy gap, as long as it correctly separates occupied and unoccupied states.
  | In systems with a gap, the physically relevant chemical potential is the VBM or HOMO.

  | Chemical potential (Fermi level):    -6.25510511 eV
  Writing Kohn-Sham eigenvalues.
  K-point:       1 at    0.000000    0.000000    0.000000 (in units of recip. lattice)

  State    Occupation    Eigenvalue [Ha]    Eigenvalue [eV]
      1       2.00000        -596.628423       -16235.08543
      2       2.00000        -180.009378        -4898.30439
      3       2.00000         -79.539689        -2164.38507
      4       2.00000         -70.655619        -1922.63721
      5       2.00000         -70.655619        -1922.63721
      6       2.00000         -70.655619        -1922.63721
      7       2.00000         -19.778504         -538.20047
      8       2.00000         -18.994894         -516.87735
      9       2.00000         -18.994894         -516.87735
     10       2.00000         -18.994893         -516.87732
     11       2.00000         -16.368096         -445.39855
     12       2.00000         -16.368096         -445.39855
     13       2.00000         -16.368096         -445.39855
     14       2.00000         -12.257475         -333.54287
     15       2.00000          -9.401715         -255.83367
     16       2.00000          -9.401715         -255.83367
     17       2.00000          -9.401715         -255.83367
     18       2.00000          -4.692940         -127.70138
     19       2.00000          -4.692940         -127.70138
     20       2.00000          -4.692940         -127.70138
     21       2.00000          -4.692931         -127.70115
     22       2.00000          -4.692931         -127.70115
     23       2.00000          -2.339199          -63.65283
     24       2.00000          -1.499034          -40.79078
     25       2.00000          -1.473260          -40.08943
     26       2.00000          -1.473260          -40.08943
     27       2.00000          -1.473259          -40.08943
     28       2.00000          -1.043155          -28.38569
     29       2.00000          -1.014321          -27.60107
     30       2.00000          -1.014320          -27.60105
     31       2.00000          -0.840542          -22.87230
     32       2.00000          -0.840542          -22.87230
     33       2.00000          -0.840541          -22.87228
     34       2.00000          -0.497825          -13.54651
     35       2.00000          -0.497825          -13.54651
     36       2.00000          -0.497825          -13.54651
     37       2.00000          -0.448639          -12.20810
     38       2.00000          -0.448639          -12.20809
     39       2.00000          -0.448639          -12.20809
     40       2.00000          -0.428279          -11.65408
     41       2.00000          -0.428279          -11.65408
     42       2.00000          -0.428279          -11.65407
     43       0.00000          -0.228230           -6.21045
     44       0.00000          -0.228229           -6.21043
     45       0.00000          -0.228229           -6.21043
     46       0.00000          -0.136180           -3.70564
     47       0.00000          -0.136180           -3.70564
     48       0.00000          -0.136019           -3.70127
     49       0.00000          -0.124226           -3.38035
     50       0.00000          -0.124225           -3.38034
     51       0.00000          -0.001021           -0.02779
     52       0.00000          -0.001020           -0.02776
     53       0.00000          -0.001020           -0.02776
     54       0.00000           0.233235            6.34666
     55       0.00000           0.249759            6.79629
     56       0.00000           0.249759            6.79629
     57       0.00000           0.249765            6.79644
     58       0.00000           0.495537           13.48426
     59       0.00000           0.495537           13.48426
     60       0.00000           0.495543           13.48441
     61       0.00000           0.645224           17.55743
     62       0.00000           0.645235           17.55774

  What follows are estimated values for band gap, HOMO, LUMO, etc.
  | They are estimated on a discrete k-point grid and not necessarily exact.
  | For converged numbers, create a DOS and/or band structure plot on a denser k-grid.

  Highest occupied state (VBM) at    -11.32745585 eV (relative to internal zero)
  | Occupation number:      2.00000000
  | K-point:     124 at    0.428571    0.571429    0.428571 (in units of recip. lattice)

  Lowest unoccupied state (CBM) at    -6.21045267 eV (relative to internal zero)
  | Occupation number:      0.00000000
  | K-point:       1 at    0.000000    0.000000    0.000000 (in units of recip. lattice)

  ESTIMATED overall HOMO-LUMO gap:      5.11700318 eV between HOMO at k-point 124 and LUMO at k-point 1
  | This appears to be an indirect band gap.
  | Smallest direct gap :      5.44361816 eV for k_point 1 at    0.000000    0.000000    0.000000 (in units of recip. lattice)
  The gap value is above 0.2 eV. Unless you are using a very sparse k-point grid,
  this system is most likely an insulator or a semiconductor.

  Total energy components:
  | Sum of eigenvalues            :       -2552.20662398 Ha      -69449.07576858 eV
  | XC energy correction          :        -173.24142154 Ha       -4714.13893298 eV
  | XC potential correction       :         224.92843153 Ha        6120.61403541 eV
  | Free-atom electrostatic energy:       -1786.91301493 Ha      -48624.37711724 eV
  | Hartree energy correction     :           0.23631373 Ha           6.43042381 eV
  | Entropy correction            :          -0.00000000 Ha          -0.00000000 eV
  | ---------------------------
  | Total energy                  :       -4287.19631519 Ha     -116660.54735957 eV
[...]
   - k =  -0.500  0.167  0.357
   - k =  -0.500  0.167  0.286
   - k =  -0.500  0.167  0.214
   - k =  -0.500  0.167  0.143
   - k =  -0.500  0.167  0.071
   - k =  -0.500  0.167  0.000
   - k =  -0.500  0.167 -0.071
   - k =  -0.500  0.167 -0.143
   - k =  -0.500  0.167 -0.214
   - k =  -0.500  0.167 -0.286
   - k =  -0.500  0.167 -0.357
   - k =  -0.500  0.167 -0.429
   - k =  -0.500  0.167 -0.500

  |-> Computing Wannier center evolution at k-point number:      3

  Treating all   15 k-points in band plot segment #   4:
   Sampling over :
   - k =  -0.500  0.500  0.500
   - k =  -0.500  0.500  0.429
   - k =  -0.500  0.500  0.357
   - k =  -0.500  0.500  0.286
   - k =  -0.500  0.500  0.214
   - k =  -0.500  0.500  0.143
   - k =  -0.500  0.500  0.071
   - k =  -0.500  0.500  0.000
   - k =  -0.500  0.500 -0.071
   - k =  -0.500  0.500 -0.143
   - k =  -0.500  0.500 -0.214
   - k =  -0.500  0.500 -0.286
   - k =  -0.500  0.500 -0.357
   - k =  -0.500  0.500 -0.429
   - k =  -0.500  0.500 -0.500

  |-> Computing Wannier center evolution at k-point number:      4

  Treating all   15 k-points in band plot segment #   5:
   Sampling over :
   - k =  -0.167 -0.500  0.500
   - k =  -0.167 -0.500  0.429
   - k =  -0.167 -0.500  0.357
   - k =  -0.167 -0.500  0.286
   - k =  -0.167 -0.500  0.214
   - k =  -0.167 -0.500  0.143
   - k =  -0.167 -0.500  0.071
   - k =  -0.167 -0.500  0.000
   - k =  -0.167 -0.500 -0.071
   - k =  -0.167 -0.500 -0.143
   - k =  -0.167 -0.500 -0.214
   - k =  -0.167 -0.500 -0.286
   - k =  -0.167 -0.500 -0.357
   - k =  -0.167 -0.500 -0.429
   - k =  -0.167 -0.500 -0.500

  |-> Computing Wannier center evolution at k-point number:      5

  Treating all   15 k-points in band plot segment #   6:
   Sampling over :
   - k =  -0.167 -0.167  0.500
   - k =  -0.167 -0.167  0.429
   - k =  -0.167 -0.167  0.357
   - k =  -0.167 -0.167  0.286
   - k =  -0.167 -0.167  0.214
   - k =  -0.167 -0.167  0.143
   - k =  -0.167 -0.167  0.071
   - k =  -0.167 -0.167  0.000
   - k =  -0.167 -0.167 -0.071
   - k =  -0.167 -0.167 -0.143
   - k =  -0.167 -0.167 -0.214
   - k =  -0.167 -0.167 -0.286
   - k =  -0.167 -0.167 -0.357
   - k =  -0.167 -0.167 -0.429
   - k =  -0.167 -0.167 -0.500

  |-> Computing Wannier center evolution at k-point number:      6

  Treating all   15 k-points in band plot segment #   7:
   Sampling over :
   - k =  -0.167  0.167  0.500
   - k =  -0.167  0.167  0.429
   - k =  -0.167  0.167  0.357
   - k =  -0.167  0.167  0.286
   - k =  -0.167  0.167  0.214
   - k =  -0.167  0.167  0.143
   - k =  -0.167  0.167  0.071
   - k =  -0.167  0.167  0.000
   - k =  -0.167  0.167 -0.071
   - k =  -0.167  0.167 -0.143
   - k =  -0.167  0.167 -0.214
   - k =  -0.167  0.167 -0.286
   - k =  -0.167  0.167 -0.357
   - k =  -0.167  0.167 -0.429
   - k =  -0.167  0.167 -0.500

  |-> Computing Wannier center evolution at k-point number:      7

  Treating all   15 k-points in band plot segment #   8:
   Sampling over :
   - k =  -0.167  0.500  0.500
   - k =  -0.167  0.500  0.429
   - k =  -0.167  0.500  0.357
   - k =  -0.167  0.500  0.286
   - k =  -0.167  0.500  0.214
   - k =  -0.167  0.500  0.143
   - k =  -0.167  0.500  0.071
   - k =  -0.167  0.500  0.000
   - k =  -0.167  0.500 -0.071
   - k =  -0.167  0.500 -0.143
   - k =  -0.167  0.500 -0.214
   - k =  -0.167  0.500 -0.286
   - k =  -0.167  0.500 -0.357
   - k =  -0.167  0.500 -0.429
   - k =  -0.167  0.500 -0.500

  |-> Computing Wannier center evolution at k-point number:      8

  Treating all   15 k-points in band plot segment #   9:
   Sampling over :
   - k =   0.167 -0.500  0.500
   - k =   0.167 -0.500  0.429
   - k =   0.167 -0.500  0.357
   - k =   0.167 -0.500  0.286
   - k =   0.167 -0.500  0.214
   - k =   0.167 -0.500  0.143
   - k =   0.167 -0.500  0.071
   - k =   0.167 -0.500  0.000
   - k =   0.167 -0.500 -0.071
   - k =   0.167 -0.500 -0.143
   - k =   0.167 -0.500 -0.214
   - k =   0.167 -0.500 -0.286
   - k =   0.167 -0.500 -0.357
   - k =   0.167 -0.500 -0.429
   - k =   0.167 -0.500 -0.500

  |-> Computing Wannier center evolution at k-point number:      9

  Treating all   15 k-points in band plot segment #  10:
   Sampling over :
   - k =   0.167 -0.167  0.500
   - k =   0.167 -0.167  0.429
   - k =   0.167 -0.167  0.357
   - k =   0.167 -0.167  0.286
   - k =   0.167 -0.167  0.214
   - k =   0.167 -0.167  0.143
   - k =   0.167 -0.167  0.071
   - k =   0.167 -0.167  0.000
   - k =   0.167 -0.167 -0.071
   - k =   0.167 -0.167 -0.143
   - k =   0.167 -0.167 -0.214
   - k =   0.167 -0.167 -0.286
   - k =   0.167 -0.167 -0.357
   - k =   0.167 -0.167 -0.429
   - k =   0.167 -0.167 -0.500

  |-> Computing Wannier center evolution at k-point number:     10

  Treating all   15 k-points in band plot segment #  11:
   Sampling over :
   - k =   0.167  0.167  0.500
   - k =   0.167  0.167  0.429
   - k =   0.167  0.167  0.357
   - k =   0.167  0.167  0.286
   - k =   0.167  0.167  0.214
   - k =   0.167  0.167  0.143
   - k =   0.167  0.167  0.071
   - k =   0.167  0.167  0.000
   - k =   0.167  0.167 -0.071
   - k =   0.167  0.167 -0.143
   - k =   0.167  0.167 -0.214
   - k =   0.167  0.167 -0.286
   - k =   0.167  0.167 -0.357
   - k =   0.167  0.167 -0.429
   - k =   0.167  0.167 -0.500

  |-> Computing Wannier center evolution at k-point number:     11

  Treating all   15 k-points in band plot segment #  12:
   Sampling over :
   - k =   0.167  0.500  0.500
   - k =   0.167  0.500  0.429
   - k =   0.167  0.500  0.357
   - k =   0.167  0.500  0.286
   - k =   0.167  0.500  0.214
   - k =   0.167  0.500  0.143
   - k =   0.167  0.500  0.071
   - k =   0.167  0.500  0.000
   - k =   0.167  0.500 -0.071
   - k =   0.167  0.500 -0.143
   - k =   0.167  0.500 -0.214
   - k =   0.167  0.500 -0.286
   - k =   0.167  0.500 -0.357
   - k =   0.167  0.500 -0.429
   - k =   0.167  0.500 -0.500

  |-> Computing Wannier center evolution at k-point number:     12

  Treating all   15 k-points in band plot segment #  13:
   Sampling over :
   - k =   0.500 -0.500  0.500
   - k =   0.500 -0.500  0.429
   - k =   0.500 -0.500  0.357
   - k =   0.500 -0.500  0.286
   - k =   0.500 -0.500  0.214
   - k =   0.500 -0.500  0.143
   - k =   0.500 -0.500  0.071
   - k =   0.500 -0.500  0.000
   - k =   0.500 -0.500 -0.071
   - k =   0.500 -0.500 -0.143
   - k =   0.500 -0.500 -0.214
   - k =   0.500 -0.500 -0.286
   - k =   0.500 -0.500 -0.357
   - k =   0.500 -0.500 -0.429
   - k =   0.500 -0.500 -0.500

  |-> Computing Wannier center evolution at k-point number:     13

  Treating all   15 k-points in band plot segment #  14:
   Sampling over :
   - k =   0.500 -0.167  0.500
   - k =   0.500 -0.167  0.429
   - k =   0.500 -0.167  0.357
   - k =   0.500 -0.167  0.286
   - k =   0.500 -0.167  0.214
   - k =   0.500 -0.167  0.143
   - k =   0.500 -0.167  0.071
   - k =   0.500 -0.167  0.000
   - k =   0.500 -0.167 -0.071
   - k =   0.500 -0.167 -0.143
   - k =   0.500 -0.167 -0.214
   - k =   0.500 -0.167 -0.286
   - k =   0.500 -0.167 -0.357
   - k =   0.500 -0.167 -0.429
   - k =   0.500 -0.167 -0.500

  |-> Computing Wannier center evolution at k-point number:     14

  Treating all   15 k-points in band plot segment #  15:
   Sampling over :
   - k =   0.500  0.167  0.500
   - k =   0.500  0.167  0.429
   - k =   0.500  0.167  0.357
   - k =   0.500  0.167  0.286
   - k =   0.500  0.167  0.214
   - k =   0.500  0.167  0.143
   - k =   0.500  0.167  0.071
   - k =   0.500  0.167  0.000
   - k =   0.500  0.167 -0.071
   - k =   0.500  0.167 -0.143
   - k =   0.500  0.167 -0.214
   - k =   0.500  0.167 -0.286
   - k =   0.500  0.167 -0.357
   - k =   0.500  0.167 -0.429
   - k =   0.500  0.167 -0.500

  |-> Computing Wannier center evolution at k-point number:     15

  Treating all   15 k-points in band plot segment #  16:
   Sampling over :
   - k =   0.500  0.500  0.500
   - k =   0.500  0.500  0.429
   - k =   0.500  0.500  0.357
   - k =   0.500  0.500  0.286
   - k =   0.500  0.500  0.214
   - k =   0.500  0.500  0.143
   - k =   0.500  0.500  0.071
   - k =   0.500  0.500  0.000
   - k =   0.500  0.500 -0.071
   - k =   0.500  0.500 -0.143
   - k =   0.500  0.500 -0.214
   - k =   0.500  0.500 -0.286
   - k =   0.500  0.500 -0.357
   - k =   0.500  0.500 -0.429
   - k =   0.500  0.500 -0.500

  |-> Computing Wannier center evolution at k-point number:     16
  *-> Finished with polarization directive nr.   3
  | Evaluation of the polarization for directive nr.     3
   - Ionic      polarization along rec. latt. vec.    3 is:        9.909750E-06 C/m^2
   - Berry term: Preliminary Electronic polarization along rec. latt. vec.    3 is:      -10.618540E-06 C/m^2 before branch-mapping
   --> Detailed listing before/after branch mapping in terms of the polarization quantum P0=       -1.025854E+00 C/m^2
     | k-string    1 :        10.118865E-06 /        10.118865E-06 P0
     | k-string    2 :         8.339450E-06 /         8.339450E-06 P0
     | k-string    3 :        12.369704E-06 /        12.369704E-06 P0
     | k-string    4 :        10.118865E-06 /        10.118865E-06 P0
     | k-string    5 :        10.354293E-06 /        10.354293E-06 P0
     | k-string    6 :         8.460092E-06 /         8.460092E-06 P0
     | k-string    7 :        12.694798E-06 /        12.694798E-06 P0
     | k-string    8 :        10.354293E-06 /        10.354293E-06 P0
     | k-string    9 :        10.354887E-06 /        10.354887E-06 P0
     | k-string   10 :         8.456557E-06 /         8.456557E-06 P0
     | k-string   11 :        12.691263E-06 /        12.691263E-06 P0
     | k-string   12 :        10.354887E-06 /        10.354887E-06 P0
     | k-string   13 :        10.118865E-06 /        10.118865E-06 P0
     | k-string   14 :         8.339450E-06 /         8.339450E-06 P0
     | k-string   15 :        12.369704E-06 /        12.369704E-06 P0
     | k-string   16 :        10.118865E-06 /        10.118865E-06 P0
   - Berry term: Electronic polarization along rec. latt. vec.    3 is:      -10.696227E-06 C/m^2 after branch-mapping

   - Dipole term: Preliminary Electronic polarization along rec. latt. vec.    3 is:     -769.390435E-03 C/m^2 before branch-mapping
   --> Detailed listing before/after branch mapping in terms of the polarization quantum P0=       -1.025854E+00 C/m^2
     | k-string    1 :        19.355083E-09 /        19.355083E-09 P0
     | k-string    2 :       999.999940E-03 /       -60.157461E-09 P0
     | k-string    3 :       999.999940E-03 /       -60.157457E-09 P0
     | k-string    4 :        19.355070E-09 /        19.355070E-09 P0
     | k-string    5 :       999.999940E-03 /       -60.172741E-09 P0
     | k-string    6 :       999.999872E-03 /      -128.039939E-09 P0
     | k-string    7 :       999.999872E-03 /      -128.039954E-09 P0
     | k-string    8 :       999.999940E-03 /       -60.172743E-09 P0
     | k-string    9 :       999.999940E-03 /       -60.172732E-09 P0
     | k-string   10 :       999.999872E-03 /      -128.039912E-09 P0
     | k-string   11 :       999.999872E-03 /      -128.039917E-09 P0
     | k-string   12 :       999.999940E-03 /       -60.172733E-09 P0
     | k-string   13 :        19.355076E-09 /        19.355076E-09 P0
     | k-string   14 :       999.999940E-03 /       -60.157458E-09 P0
     | k-string   15 :       999.999940E-03 /       -60.157465E-09 P0
     | k-string   16 :        19.355088E-09 /        19.355088E-09 P0
   - Dipole term: Electronic polarization along rec. latt. vec.    3 is:       83.603115E-09 C/m^2 after branch-mapping



  Wannier center evolution                                :  max(cpu_time) wall_clock(cpu1)
  | Total Time                                            :          0.753            0.774
------------------------------------------------------------

  Summary for all Polarization Directives:

  * Ionic Polarization along rec. latt. vecs. is (C/m^2):         9.909750E-06      -38.972542E-03        9.909750E-06
  * Electronic Contributions:
    Summarizing all directives:
    - Directive    1 in direction of rec. latt. vec.  1 yields the electronic polarization (Berry term):         -10.696230E-06 (C/m^2)
    - Directive    2 in direction of rec. latt. vec.  2 yields the electronic polarization (Berry term):          36.336296E-03 (C/m^2)
    - Directive    3 in direction of rec. latt. vec.  3 yields the electronic polarization (Berry term):         -10.696227E-06 (C/m^2)
    - Directive    1 in direction of rec. latt. vec.  1 yields the electronic polarization (Dipole term):         83.606737E-09 (C/m^2)
    - Directive    2 in direction of rec. latt. vec.  2 yields the electronic polarization (Dipole term):         55.712517E-06 (C/m^2)
    - Directive    3 in direction of rec. latt. vec.  3 yields the electronic polarization (Dipole term):         83.603115E-09 (C/m^2)
  * Full Polarizations (Electron + Ions):
    Summarizing all directives:
    - Directive    1 in direction of rec. latt. vec.  1 yields the full polarization      :      -702.873504E-09 (C/m^2)
    - Directive    2 in direction of rec. latt. vec.  2 yields the full polarization      :        -2.580533E-03 (C/m^2)
    - Directive    3 in direction of rec. latt. vec.  3 yields the full polarization      :      -702.874621E-09 (C/m^2)
  | Cartesian Polarization                 -702.873504E-09         -2.580533E-03       -702.874621E-09

------------------------------------------------------------


------------------------------------------------------------------------------
  Final output of selected total energy values:

  The following output summarizes some interesting total energy values
  at the end of a run (AFTER all relaxation, molecular dynamics, etc.).

  | Total energy of the DFT / Hartree-Fock s.c.f. calculation      :        -116656.461273847 eV
  | Final zero-broadening corrected energy (caution - metals only) :        -116656.461273847 eV
  | For reference only, the value of 1 Hartree used in FHI-aims is :             27.211384500 eV
  | For reference only, the overall average (free atom contribution
  | + realspace contribution) of the electrostatic potential after
  | s.c.f. convergence is                                          :            -18.775857763 eV

  Before relying on these values, please be sure to understand exactly which
  total energy value is referred to by a given number. Different objects may
  all carry the same name 'total energy'. Definitions:

  Total energy of the DFT / Hartree-Fock s.c.f. calculation:
  | Note that this energy does not include ANY quantities calculated after the
  | s.c.f. cycle, in particular not ANY RPA, MP2, etc. many-body perturbation terms.

  Final zero-broadening corrected energy:
  | For metallic systems only, a broadening of the occupation numbers at the Fermi
  | level can be extrapolated back to zero broadening by an electron-gas inspired
  | formula. For all systems that are not real metals, this value can be
  | meaningless and should be avoided.

------------------------------------------------------------------------------
  Methods described in the following list of references were used in this FHI-aims run.
  If you publish the results, please make sure to cite these reference if they apply.
  FHI-aims is an academic code, and for our developers (often, Ph.D. students
  and postdocs), scientific credit in the community is essential.
  Thank you for helping us!

  For any use of FHI-aims, please cite:

    Volker Blum, Ralf Gehrke, Felix Hanke, Paula Havu, Ville Havu,
    Xinguo Ren, Karsten Reuter, and Matthias Scheffler
    'Ab initio molecular simulations with numeric atom-centered orbitals'
    Computer Physics Communications 180, 2175-2196 (2009)
    http://doi.org/10.1016/j.cpc.2009.06.022


  The provided symmetry information was generated with SPGlib:

    Atsushi Togo, Yusuke Seto, Dimitar Pashov
    SPGlib 1.7.3 obtained from http://spglib.sourceforge.net
    Licence: New BSD license
    Copyright (C) 2008 Atsushi Togo


  The ELSI infrastructure was used in your run to solve the Kohn-Sham electronic structure.
  Please check out https://wordpress.elsi-interchange.org to learn more.
  If scalability is important for your project, please acknowledge ELSI by citing:

    V. W-z. Yu, F. Corsetti, A. Garcia, W. P. Huhn, M. Jacquelin, W. Jia,
    B. Lange, L. Lin, J. Lu, W. Mi, A. Seifitokaldani, A. Vazquez-Mayagoitia,
    C. Yang, H. Yang, and V. Blum
    'ELSI: A unified software interface for Kohn-Sham electronic structure solvers'
    Computer Physics Communications 222, 267-285 (2018).
    http://doi.org/10.1016/j.cpc.2017.09.007


  For the real-space grid partitioning and parallelization used in this calculation, please cite:

    Ville Havu, Volker Blum, Paula Havu, and Matthias Scheffler,
    'Efficient O(N) integration for all-electron electronic structure calculation'
    'using numerically tabulated basis functions'
    Journal of Computational Physics 228, 8367-8379 (2009).
    http://doi.org/10.1016/j.jcp.2009.08.008

  Of course, there are many other important community references, e.g., those cited in the
  above references. Our list is limited to references that describe implementations in the
  FHI-aims code. The reason is purely practical (length of this list) - please credit others as well.

------------------------------------------------------------
          Leaving FHI-aims.
          Date     :  20240930, Time     :  173516.927

          Computational steps:
          | Number of self-consistency cycles          :           18
          | Number of SCF (re)initializations          :            1

          Detailed time accounting                     :  max(cpu_time)    wall_clock(cpu1)
          | Total time                                  :       13.748 s          13.753 s
          | Preparation time                            :        0.404 s           0.402 s
          | Boundary condition initalization            :        0.043 s           0.042 s
          | Grid partitioning                           :        0.037 s           0.036 s
          | Preloading free-atom quantities on grid     :        0.095 s           0.094 s
          | Free-atom superposition energy              :        0.010 s           0.010 s
          | Total time for integrations                 :        3.470 s           3.472 s
          | Total time for solution of K.-S. equations  :        0.373 s           0.389 s
          | Total time for density update               :        5.485 s           5.488 s
          | Total time for mixing                       :        0.021 s           0.018 s
          | Total time for Hartree multipole update     :        0.073 s           0.079 s
          | Total time for Hartree multipole sum        :        1.177 s           1.180 s
          | Total time for total energy evaluation      :        0.002 s           0.003 s
          | Total time for scaled ZORA corrections      :        0.000 s           0.000 s
          | Total time for Wannier Center Evolution     :        2.387 s           2.388 s

          Partial memory accounting:
          | Residual value for overall tracked memory usage across tasks:     0.000000 MB (should be 0.000000 MB)
          | Peak values for overall tracked memory usage:
          |   Minimum:       12.367 MB (on task 23 after allocating work_ovl)
          |   Maximum:       12.965 MB (on task  7 after allocating work_ovl)
          |   Average:       12.670 MB
          | Largest tracked array allocation:
          |   Minimum:        3.019 MB (hamiltonian_shell on task 23)
          |   Maximum:        3.384 MB (hamiltonian_shell on task 50)
          |   Average:        3.233 MB
          Note:  These values currently only include a subset of arrays which are explicitly tracked.
          The "true" memory usage will be greater.

          Have a nice day.
------------------------------------------------------------
