14.399652
    6.075310    0.000000   -0.000000   -0.000000    6.075315    0.000000   -0.000000   -0.000000    6.075315
    2.514812    0.000000    0.000000    0.000000    2.514812    0.000000    0.000000    0.000000    2.514812
    7.091245    0.000000    0.000000    0.000000    7.091245    0.000000    0.000000    0.000000    7.091245
   -5.777386    0.000000    0.000000    0.000000   -1.914437    0.000000    0.000000    0.000000   -1.914437
