2.000000
   6.32150684   0.00000000   0.00000000   0.00000000   6.32150684   0.00000000   0.00000000   0.00000000   6.32150684
   2.54322282   0.00000000   0.00000000   0.00000000   2.54322282   0.00000000   0.00000000   0.00000000   2.54322282
   7.35437212   0.00000000   0.00000000   0.00000000   7.35437212   0.00000000   0.00000000   0.00000000   7.35437212
  -5.86391418   0.00000000   0.00000000   0.00000000  -2.01684038   0.00000000   0.00000000   0.00000000  -2.01684038
