14.399652
    2.316035   -0.000001   -0.000000   -0.000000    2.102130   -0.000001   -0.000000    0.000000    1.987369
    0.212114    0.214888    0.278072   -0.010373   -0.045310    0.089228    0.152204    0.140381   -0.013847
    0.237947    0.296619   -0.107146    0.117411    0.066943   -0.135530    0.015627   -0.030062   -0.118980
   -0.275780   -0.023373   -0.009361    0.028037   -0.322666    0.001876    0.006029    0.021499   -0.357282
   -0.286649   -0.029356    0.019815    0.036192   -0.303930    0.015617   -0.010415   -0.016836   -0.324753
    0.348691   -0.387438   -0.098937   -0.222107   -0.007844    0.025062    0.043759    0.004413   -0.071852
    0.368556   -0.167242    0.306652   -0.026422   -0.152791   -0.008163    0.191871   -0.109312    0.073191
    0.819850   -0.405090   -0.107144   -0.442567    0.566635   -0.002318   -0.053096   -0.065984    0.295396
    0.860481   -0.043381    0.387529   -0.101192    0.304635    0.016781    0.344094    0.059420    0.527785
    0.118652    0.017323   -0.020560   -0.008666    0.179636    0.024969   -0.070528   -0.019206    0.205790
    0.117688   -0.082024    0.017376   -0.063205    0.160948    0.026658    0.019401    0.052769    0.161203
    0.048515    0.007750   -0.044929    0.007574    0.208323   -0.022123   -0.047231   -0.068645    0.215435
    0.026793   -0.028032   -0.042412   -0.026358    0.202937    0.029654   -0.036887    0.068401    0.203660
    0.118822    0.021095   -0.018743    0.052787    0.094485   -0.043104   -0.011917   -0.044071    0.180667
    0.106561   -0.016854   -0.018451    0.013643    0.095892    0.053013   -0.044441    0.017097    0.165799
   -0.694748    0.576092    0.237993    0.661710   -0.417207    0.076442    0.243088    0.119885   -0.095894
   -0.735918    0.315117   -0.524023    0.411007   -0.074072    0.043853   -0.538851   -0.058608   -0.472556
   -0.711878   -0.261755   -0.374482   -0.313767   -0.153463    0.073636   -0.356310    0.102195   -0.436303
   -0.679409   -0.375451    0.175954   -0.479561   -0.402756   -0.128336    0.182833   -0.133654   -0.137419
